 TITLE = "Adapted Mesh"
 VARIABLES = "X", "Y"
 ZONE T = "Domain", N=       13789 E=       27342 
 DATAPACKING=POINT, ZONETYPE=FEQUADRILATERAL
  8.757529502315918E-003  0.208735668184430     
  0.990346675349625       1.295952490929437E-002
  0.991241604685205       0.991264470483643     
  8.734767139271567E-003  0.991240842239920     
  0.451119927573115       0.577305370085483     
  0.467661513410787       0.575027154364332     
  0.487351070179590       0.573094917994939     
  0.508111579613383       0.571826692423130     
  0.529088893432892       0.571559663454827     
  0.546645288092092       0.573381204112707     
  0.563483225063107       0.567380828469012     
  0.419405582135451       0.587362037476321     
  0.408002063965249       0.579847779440085     
  0.433645273029176       0.570501964511331     
  0.415115969945479       0.572621733101431     
  0.440493698102879       0.589193609603770     
  0.459420307496220       0.590203387082508     
  0.454676608109444       0.562442574227254     
  0.475114750658358       0.558526514339618     
  0.478488672216096       0.589455313839613     
  0.496386515989396       0.556037406437389     
  0.498418508592426       0.588556688321658     
  0.518681215805870       0.587976926554076     
  0.518687411450064       0.554555954896531     
  0.538467257674448       0.587747218411352     
  0.543774415560814       0.554619994006867     
  0.558184419711646       0.586266650877662     
  0.583378214424558       0.560030129660790     
  0.567135811459786       0.547595418200060     
  0.581496450005188       0.582970595591452     
  0.585032795529439       0.542679772225262     
  0.393695125243870       0.606896818125887     
  0.410353889350476       0.605297853771950     
  0.398671856334884       0.589710792239636     
  0.429941610813097       0.605033289043934     
  0.399302941180619       0.570399944409170     
  0.449719306437475       0.605479957759964     
  0.439391520050818       0.549643975406819     
  0.415725089144026       0.555770531589677     
  0.396228293376768       0.554001688232318     
  0.461441807652369       0.544554759068940     
  0.469234769454775       0.605513289875631     
  0.483343207026490       0.540918907310581     
  0.488943690329588       0.605100775256585     
  0.508929883183225       0.604632197553275     
  0.505719808117489       0.538188277316835     
  0.528973702447246       0.604238803394223     
  0.528896179707471       0.535921340125995     
  0.549064073936377       0.603687210474809     
  0.552211304465696       0.532645385040527     
  0.601585875157066       0.570246604390292     
  0.569737777513462       0.602963737864518     
  0.574565884251355       0.528788259738250     
  0.601195806902619       0.549770651801120     
  0.603634249157684       0.590272101265945     
  0.590222701412683       0.604028455947052     
  0.598477319603238       0.527672542273557     
  0.607029440739528       0.606595691681723     
  0.379565488312131       0.619477900998361     
  0.400602069540046       0.621586949906036     
  0.379592845464143       0.598809469288307     
  0.420095587702920       0.621681988826194     
  0.380778869313465       0.579928245699787     
  0.439817776114904       0.621741666376942     
  0.424344467931811       0.535067787872709     
  0.381161649082755       0.561635197598943     
  0.402608566553048       0.538993403124106     
  0.446949038196896       0.530423174646004     
  0.459573454563847       0.621797815901750     
  0.383014166865482       0.544005504357110     
  0.469448604645297       0.526287677256528     
  0.479353230114179       0.621667698013682     
  0.492032246932151       0.522807310362323     
  0.499250653440984       0.621402018314109     
  0.519254952440887       0.621111965145941     
  0.514865764688132       0.519714508037454     
  0.539332777416768       0.620817082840675     
  0.537844002520992       0.516531407216346     
  0.559538601301032       0.620550422460908     
  0.560656806530134       0.513018012457318     
  0.579746918662254       0.620634775858072     
  0.620120931026540       0.579361983530675     
  0.619382512574344       0.559383483948757     
  0.618933672069028       0.538955528787577     
  0.583424854761379       0.509583635972580     
  0.621115819863945       0.598649266568469     
  0.599508838152498       0.620965086979350     
  0.620480970225661       0.619188186909090     
  0.620171976326529       0.518847719546807     
  0.605558177630062       0.505400794699697     
  0.623122716786022       0.502120632460210     
  0.369856937514265       0.638634247635319     
  0.361098811790668       0.624504828208147     
  0.390012375011656       0.638108226428671     
  0.362348299975023       0.608050646662962     
  0.410092398198690       0.638375162312047     
  0.362887297075074       0.589189398361417     
  0.429929609146164       0.638442677541339     
  0.363589783072597       0.570378934953421     
  0.409629783492638       0.520428495790532     
  0.432303957033465       0.516014009817842     
  0.449763786507366       0.638453334721299     
  0.364722286238114       0.551782417472733     
  0.387388058641762       0.525522850626642     
  0.455127543191813       0.511838547874002     
  0.469615594407709       0.638401237658890     
  0.366728822940178       0.532864813586860     
  0.477953655445756       0.508017076435953     
  0.489511657524653       0.638269662286753     
  0.509472630654975       0.638094085518000     
  0.500799332325196       0.504485780181537     
  0.529493849394469       0.637915298406510     
  0.523638526941349       0.501028124526282     
  0.549569082274679       0.637768146451229     
  0.546376264356349       0.497418817748219     
  0.569662216489424       0.637721759993354     
  0.637186527031633       0.569071767311338     
  0.569010239364058       0.493565888165230     
  0.636918784145186       0.549109337158944     
  0.637537219503690       0.588711588245808     
  0.589681143209551       0.637774185141650     
  0.629624844966488       0.638286545127462     
  0.638496594472933       0.624316793864390     
  0.609747942504539       0.637667804382963     
  0.637670004666897       0.607854399585320     
  0.637040258229309       0.529175761730625     
  0.591749122773700       0.489351712570897     
  0.637444338278574       0.509958374923226     
  0.615891434709590       0.485026477114756     
  0.636074031366521       0.491532102845289     
  0.633466337983928       0.475629717656566     
  0.343305112421069       0.657000677237905     
  0.360321174229244       0.655728992543772     
  0.348239930958188       0.638661377397315     
  0.380059318977628       0.655428362019038     
  0.345717775161584       0.617835345927324     
  0.400029505189667       0.655322623089129     
  0.345563987998703       0.598730537029472     
  0.419984221825974       0.655347064641394     
  0.345925200049192       0.579624583992978     
  0.417557558385588       0.501637314584657     
  0.439889377529159       0.655347018854931     
  0.346686459990205       0.560644926529980     
  0.394199539739126       0.506145086286814     
  0.440648576078220       0.497480832435088     
  0.459787484206822       0.655314381249748     
  0.368913364071299       0.511484848249234     
  0.347906841981426       0.541814075383344     
  0.463671668583252       0.493549573722735     
  0.479700404916409       0.655244440343222     
  0.348911173510508       0.507953866831063     
  0.349267345507190       0.523293729318704     
  0.486614946483768       0.489797147115921     
  0.499644017113311       0.655144266953546     
  0.519624747812445       0.655034741795329     
  0.509436420972825       0.486116778062618     
  0.539638930454386       0.654939462319898     
  0.532069631954141       0.482354970711703     
  0.559670079733529       0.654882099749482     
  0.554480319416557       0.478345477016032     
  0.654351277149253       0.559069472355081     
  0.654470863919613       0.578893581491408     
  0.579681914215084       0.654867591195562     
  0.654862120191438       0.656228942224423     
  0.638705357464834       0.655119795606322     
  0.650734016001145       0.638435603561895     
  0.619428293433099       0.654932794023789     
  0.653781946656519       0.617766024184867     
  0.599639981988827       0.654857457162792     
  0.654385805229149       0.598486895192482     
  0.654223757946762       0.539131144018365     
  0.576772463093368       0.473890708700990     
  0.654126480258809       0.519200798010362     
  0.599251592102699       0.468772118626622     
  0.653708844477280       0.499041323214230     
  0.621488913171840       0.462500971037128     
  0.652379065512189       0.477608580335438     
  0.641021153743335       0.461662525427490     
  0.654847827227209       0.461849277844208     
  0.655788032220635       0.448404360946365     
  0.329005983765466       0.669891217702032     
  0.350413720807809       0.672233818738896     
  0.328662549632841       0.648464604238357     
  0.370152020532376       0.672436362262574     
  0.328896707159976       0.628499632920547     
  0.390058598759426       0.672414450773377     
  0.328441199803276       0.608682755769366     
  0.410019010860770       0.672390610253675     
  0.328467856423082       0.589232613650244     
  0.429969276647648       0.672377751728367     
  0.328904147808499       0.569938433895325     
  0.402887500579187       0.487249596884277     
  0.426154823911519       0.483204363714015     
  0.449902781367207       0.672353056620592     
  0.379505969625440       0.491275644022879     
  0.329770140441431       0.550829421574199     
  0.449317752038126       0.479271279754658     
  0.469833621222680       0.672310787207708     
  0.357247620680715       0.494044733246274     
  0.331099014025716       0.532068728243830     
  0.472357652318911       0.475428096508020     
  0.489774664341296       0.672251910509561     
  0.332969440259360       0.514229081368186     
  0.337129891302936       0.497376762058384     
  0.509734376326564       0.672184177696902     
  0.495217301607057       0.471612478127752     
  0.529715011282132       0.672119330863618     
  0.517817653726063       0.467736079713408     
  0.549711010055887       0.672067552370147     
  0.540064517405797       0.463687514780182     
  0.671535039883730       0.569095321377343     
  0.569706254767041       0.672029047256441     
  0.667063617185315       0.667911741411001     
  0.648241682498952       0.671044500974477     
  0.669386044724711       0.648536732467825     
  0.629190789300842       0.671698329394826     
  0.670086721241089       0.628712383010934     
  0.609548056067104       0.671902913522719     
  0.671087317662110       0.608730453474750     
  0.589672046966226       0.671984261128993     
  0.671490115855386       0.588941041044817     
  0.671375477161492       0.549164884628044     
  0.561922396784661       0.459255617585337     
  0.671112650029953       0.529150962645507     
  0.583562515530016       0.454075667062154     
  0.670845417945378       0.508886853775061     
  0.605427066441431       0.447785131621407     
  0.671053101245921       0.487289872369072     
  0.622532290108931       0.446368561512443     
  0.672571027152303       0.472861789535240     
  0.643261306806471       0.438942783019429     
  0.672088345428339       0.450193458050252     
  0.660561273934771       0.433780994239188     
  0.678490587958705       0.431226514161586     
  0.319335532838929       0.689389514421270     
  0.310353103137414       0.674996408929083     
  0.339726073418724       0.688967006856678     
  0.311349434321502       0.658129349657596     
  0.360037812761375       0.689353837721009     
  0.311339510390981       0.638572292473143     
  0.380059501699203       0.689473612356523     
  0.311212472360912       0.618803521849016     
  0.400046490211072       0.689491462215800     
  0.311119983761178       0.599101903453734     
  0.420020786032964       0.689483506432052     
  0.311310548148234       0.579535942232668     
  0.411786275008203       0.468988436685695     
  0.439979127138525       0.689466194920953     
  0.388626080982297       0.472846486252720     
  0.311871858866697       0.560104345027881     
  0.434984146779342       0.465116033716666     
  0.459926393043688       0.689439445886142     
  0.365889399375400       0.476524434217660     
  0.312914608185949       0.540860644087843     
  0.458077472879339       0.461254837866863     
  0.479871788630935       0.689403331412695     
  0.314663338123232       0.521925695772300     
  0.344037783864649       0.480293028117498     
  0.499823519956712       0.689360357539093     
  0.480978330340328       0.457365260901919     
  0.317733961297545       0.503344400913970     
  0.322881871239487       0.484995138366490     
  0.519786740054605       0.689315187830868     
  0.503608310403252       0.453394020961471     
  0.539762424335390       0.689271761800723     
  0.525858533172906       0.449312422535653     
  0.559746195486345       0.689227989342110     
  0.683666901785892       0.684290002870877     
  0.659970947019896       0.686936364502927     
  0.686078073086622       0.660358591437691     
  0.639514006655854       0.688277168338798     
  0.687281624896276       0.639497515865349     
  0.619601401786278       0.688824008779854     
  0.688007192958961       0.619239385352738     
  0.599686103463331       0.689059382862846     
  0.688483700888930       0.599184541377597     
  0.579727109173370       0.689168827564994     
  0.688625655039399       0.579226117245112     
  0.688479589637635       0.559273042959303     
  0.547510148973945       0.445104947605474     
  0.688109561615721       0.539297154276557     
  0.568424289146393       0.440356160132673     
  0.687611891115721       0.519308972732888     
  0.588914443268888       0.434281662444822     
  0.687206291066492       0.499519562729880     
  0.605866414713971       0.430665985957088     
  0.691280848952123       0.480905042201950     
  0.628527228647421       0.425639030321803     
  0.689641803031261       0.461295204321970     
  0.647462789841904       0.419997202021405     
  0.689380713149174       0.444364874070934     
  0.667526362256471       0.415953449194583     
  0.686312854373083       0.410910217578820     
  0.292630583496549       0.707845025301125     
  0.309795402168010       0.706643696822384     
  0.297485103674825       0.689323395082931     
  0.329724067744656       0.706444407615558     
  0.294708162530467       0.668165227387483     
  0.349883700653090       0.706443367453067     
  0.294178136489269       0.648614553955788     
  0.370006348638989       0.706553293713202     
  0.293937267366825       0.628881711618884     
  0.390047700039146       0.706608368388077     
  0.293808910640647       0.609100061535853     
  0.410049674244575       0.706622896397535     
  0.293845901214386       0.589356804127435     
  0.430027748765822       0.706618705920016     
  0.397589219583282       0.454872158655840     
  0.294150011176048       0.569682801890662     
  0.449989445814230       0.706604677650407     
  0.420726226541458       0.451057246983974     
  0.374615978762863       0.458676744189957     
  0.294830779743019       0.550085367586965     
  0.469942306166653       0.706583360742865     
  0.443812366261389       0.447211191493258     
  0.296057734364398       0.530551586969712     
  0.352053228154153       0.462570419025747     
  0.489893709817886       0.706556084658910     
  0.466714952330611       0.443288766668251     
  0.298142775718467       0.510973912860740     
  0.329948502491623       0.466815197813366     
  0.489360746448227       0.439232504527090     
  0.509849649541921       0.706524473723731     
  0.301632524453041       0.491084927209898     
  0.307825100044747       0.471587894765696     
  0.529814117739149       0.706489637381044     
  0.511710059454428       0.435024736258865     
  0.549788787087303       0.706449304273351     
  0.708288070946547       0.709218599321457     
  0.705568282597033       0.692301589332533     
  0.691571860887955       0.706196689398996     
  0.671063805692318       0.704751642253650     
  0.704193930496800       0.671541067370846     
  0.650145916993965       0.705268516546437     
  0.704670334076255       0.650336274224010     
  0.629837631946276       0.705803436637488     
  0.705214890331107       0.629758542552372     
  0.609771353186005       0.706124903081568     
  0.705592166233714       0.609510331700568     
  0.589765203392612       0.706299209631084     
  0.705733195051649       0.589424823123536     
  0.569772988616904       0.706393431883864     
  0.705589520658445       0.569415305603917     
  0.533641814878724       0.430795713919151     
  0.705161819270537       0.549435256351270     
  0.554356070667233       0.427078922619998     
  0.704493553838227       0.529481399750262     
  0.573577672308778       0.422188984525340     
  0.703656521827571       0.509624184013999     
  0.597276732523098       0.416254073548735     
  0.708023937651808       0.489782550778255     
  0.614629884908803       0.411531664515468     
  0.706698860321662       0.470227452475591     
  0.632917629673444       0.407655255988626     
  0.704773304667829       0.450753304691944     
  0.653529498852670       0.401594547419971     
  0.702582794001095       0.428155540620721     
  0.708989047116549       0.385568453450824     
  0.691417820481797       0.391362424139099     
  0.706546612002835       0.405206338247813     
  0.672572038041778       0.397398219501654     
  0.278278363256395       0.720774012163746     
  0.299875829468263       0.723241851532724     
  0.277807303854270       0.699160264391172     
  0.319780378546417       0.723546425612727     
  0.277876624051139       0.678976971543031     
  0.339848742610577       0.723623938117619     
  0.277153491456464       0.658861535925056     
  0.359956116467501       0.723689203316661     
  0.276758614550817       0.639003641178871     
  0.380029675988054       0.723747736418490     
  0.276546229942372       0.619158160893653     
  0.400058761318596       0.723779760685448     
  0.276478351710079       0.599316847324271     
  0.420055502734974       0.723790979241961     
  0.276593185914035       0.579496364030499     
  0.440030494644717       0.723789647609381     
  0.406544458648530       0.437092844658041     
  0.383478345698438       0.440902309029443     
  0.276964858074411       0.559696027285555     
  0.459992080006886       0.723780185905739     
  0.429586545644452       0.433262315192397     
  0.360580791804488       0.444775211175108     
  0.277695691270250       0.539880665717781     
  0.479947367347580       0.723764381989961     
  0.452443836812305       0.429336823136642     
  0.338004788873496       0.448827683594759     
  0.278921946116412       0.519925255313584     
  0.475027627908740       0.425233181779432     
  0.499902334297831       0.723743044965728     
  0.280794120468044       0.499417998188139     
  0.315816075509327       0.453121134485115     
  0.283433443852034       0.476642150558929     
  0.294249101322665       0.457340966027443     
  0.519861843735411       0.723716332199571     
  0.497350707033799       0.420877785553415     
  0.276387669876287       0.459515521732068     
  0.539829836485139       0.723682580655799     
  0.721064724876175       0.722680253461630     
  0.722954903077942       0.701323528824548     
  0.700158970238099       0.723612129943041     
  0.722582077838240       0.681261382527323     
  0.680564479704146       0.722992318457960     
  0.660356625522168       0.722774438117503     
  0.722406450314649       0.660712382063648     
  0.640053471114915       0.722993734667078     
  0.722609894350571       0.640152577590071     
  0.619891236212458       0.723255512703587     
  0.722833592004365       0.619808019118259     
  0.599825242786268       0.723444986028619     
  0.722907741729761       0.599633879904394     
  0.579805445351492       0.723563681848743     
  0.722738864697809       0.579565739755263     
  0.519560153012433       0.416281026015321     
  0.559809713648433       0.723635936208080     
  0.722280426141535       0.559558629109172     
  0.541962882905552       0.411753599608506     
  0.721541729964446       0.539591450059324     
  0.560219427295384       0.412126246295106     
  0.720580238298741       0.519670362710963     
  0.582556015512467       0.404039643205484     
  0.725052952550718       0.499598311117959     
  0.600893001637231       0.397787499259531     
  0.723939073274166       0.479744060508221     
  0.621059850713478       0.393231405237743     
  0.722482778540745       0.459806280193375     
  0.639132745307037       0.387644313253094     
  0.723362737838142       0.439109741490906     
  0.728430664573203       0.362069714431826     
  0.715239296074503       0.366774486983923     
  0.727127534641023       0.374478503757522     
  0.694801186063236       0.371518008513426     
  0.724919144974816       0.397007323150026     
  0.677839482286003       0.377300122066796     
  0.723427184412547       0.418023664801627     
  0.658137279041532       0.382889015045589     
  0.268629690464587       0.740378489065446     
  0.259504404103900       0.725833588214127     
  0.289174429882249       0.740044918845267     
  0.260418080603039       0.708838816240470     
  0.309640964657091       0.740529974934110     
  0.260281820051358       0.689115471524723     
  0.329806365184436       0.740742523917524     
  0.259971837987881       0.669143908446279     
  0.349923203654431       0.740844965613388     
  0.259593092118967       0.649179020744663     
  0.370008457533167       0.740909475042657     
  0.259329732547539       0.629261491234316     
  0.390055510500366       0.740951754248165     
  0.259187659935634       0.609355857846946     
  0.410068083752543       0.740975561880431     
  0.259176186579433       0.589454790543220     
  0.430055282786467       0.740985904285959     
  0.392403742132586       0.423212119870925     
  0.259330932563946       0.569552842006904     
  0.450025891314378       0.740986828401518     
  0.415407104247486       0.419382478399886     
  0.369369667971201       0.427050471023408     
  0.259706409791646       0.549626790215075     
  0.469987157704579       0.740980472154260     
  0.438204633052199       0.415470567888196     
  0.346481380835338       0.430992191353623     
  0.260358969522700       0.529615662072606     
  0.460669178510068       0.411375405920799     
  0.489944901090864       0.740967664602067     
  0.261293261064585       0.509394371337874     
  0.323902776082953       0.435124192219673     
  0.262266648526671       0.488830455992778     
  0.301884269467682       0.439483155360008     
  0.509903897940088       0.740948464962850     
  0.482780997885090       0.406978094508961     
  0.261871702948647       0.469109861385708     
  0.281145831044734       0.444126904420168     
  0.529868389498664       0.740921912256986     
  0.262246723283595       0.450748881419994     
  0.740490052531412       0.731862536959748     
  0.726115544403670       0.741021928225183     
  0.739968846734771       0.711492189649627     
  0.709381433055075       0.740256714932860     
  0.740124629076970       0.691043757848898     
  0.689992223426713       0.740318379162359     
  0.670164512378221       0.740260816585086     
  0.740074096392301       0.670708079876855     
  0.650089316516227       0.740318240330118     
  0.740091942516517       0.650328338069466     
  0.629966651491194       0.740473360155101     
  0.740162571057444       0.630010449579735     
  0.609882554008620       0.740630209524221     
  0.740147952789962       0.609806294497242     
  0.589841527070689       0.740749699558993     
  0.739933751558188       0.589701524986291     
  0.569831486233860       0.740830994765499     
  0.739448865614096       0.569667687733757     
  0.526998188694144       0.396756175028159     
  0.504706078401570       0.402143351510035     
  0.549842624815236       0.740884939562857     
  0.738682635816989       0.549681994187953     
  0.544432263340758       0.396263612232142     
  0.737692560975455       0.529732049252006     
  0.566755922552305       0.390295187089675     
  0.742239767937328       0.509605173365549     
  0.585820758542337       0.385563982157067     
  0.741237080521908       0.489662591468931     
  0.606608746229763       0.379242361940551     
  0.740040949092809       0.469677337045315     
  0.625879859919788       0.373887754114300     
  0.741369395276225       0.449370639878969     
  0.739428797610984       0.348316365353450     
  0.719094629308897       0.349794293214214     
  0.741263688237109       0.371164965488001     
  0.701158183199196       0.355242204443698     
  0.743069129063918       0.387918977606211     
  0.685216783227527       0.358961591754504     
  0.742143324252825       0.407924958678452     
  0.663660023494190       0.363239769845281     
  0.740933144675155       0.429545105763740     
  0.644450534390661       0.368731027384634     
  0.241815018513451       0.758889235034163     
  0.246610021310663       0.740222604287103     
  0.259105819988362       0.757731662745144     
  0.279177675210712       0.757603655680400     
  0.243706250636633       0.718883978912820     
  0.299475364073256       0.757682318173447     
  0.243071046948234       0.699185651648619     
  0.319727184558627       0.757873051924933     
  0.242701564257909       0.679300858956218     
  0.339884531414889       0.758003545852329     
  0.242385601752184       0.659344730858082     
  0.359986358017618       0.758084725930049     
  0.242124125797113       0.639385369595291     
  0.380046081347233       0.758137081492144     
  0.241946060855433       0.619435550632043     
  0.400070683045436       0.758170612479233     
  0.241860284048119       0.599488899421544     
  0.420068342541573       0.758190520713649     
  0.241881542581720       0.579538336495130     
  0.440047551832996       0.758200284944467     
  0.401265383297038       0.405541960561034     
  0.378270998873705       0.409383004120645     
  0.242035881465760       0.559570668111935     
  0.460015578109753       0.758201983367749     
  0.424032305432912       0.401643947958736     
  0.355231555596184       0.413251718168138     
  0.242350301659922       0.539560785162033     
  0.446396822473907       0.397597195758170     
  0.479978099341865       0.758196561102870     
  0.332311405141376       0.417241112787485     
  0.242823646048395       0.519476346328924     
  0.309661088945679       0.421462071795071     
  0.243364318226584       0.499328737135455     
  0.468256576908210       0.393275886757521     
  0.499939544307515       0.758184229201993     
  0.243719310770746       0.479374640927093     
  0.287429883543176       0.426128389120247     
  0.519903706870113       0.758164570685519     
  0.265651055184397       0.431933548182534     
  0.244119050766027       0.459873649596862     
  0.758941557198383       0.758360932919595     
  0.757773900555417       0.741157540320140     
  0.740372699017164       0.753676109063242     
  0.757570567833097       0.721184075683480     
  0.719203680367337       0.756631577558745     
  0.757501858429247       0.700933729919348     
  0.699688541521113       0.757254922867931     
  0.679940221487210       0.757491371496851     
  0.757523659825902       0.680638082456643     
  0.660005576299555       0.757613195524051     
  0.757527446445806       0.660358613159552     
  0.639970284648733       0.757731104852036     
  0.757516276957189       0.640108494740251     
  0.619912852258275       0.757852713610669     
  0.757427109423474       0.619921081513127     
  0.599871050496966       0.757958118327950     
  0.757163922812856       0.599807658505709     
  0.579852997317095       0.758038444953133     
  0.756650505411522       0.579758952169796     
  0.510848133866581       0.382996516733512     
  0.559855829679325       0.758095831427626     
  0.755866909168199       0.559759258168089     
  0.528343197478690       0.380107462004990     
  0.489658865820265       0.388514260609518     
  0.539874379024161       0.758136152137174     
  0.754869222953869       0.539793771189154     
  0.552043647355012       0.375494538201061     
  0.759456664020140       0.519646782747864     
  0.573635033145230       0.370931881655490     
  0.758551750201643       0.499680976758038     
  0.592079317185330       0.365467966959543     
  0.757513064862789       0.479668404996153     
  0.611179774316233       0.360120018096655     
  0.758876541927561       0.459590734880899     
  0.762532713223799       0.318924664612588     
  0.744162111163621       0.325483322400368     
  0.759709469020551       0.338804331696116     
  0.724773228306143       0.330957983566583     
  0.758605679062503       0.360228055645802     
  0.705526156206202       0.335681275056366     
  0.758540833544202       0.382388745467154     
  0.685941772917874       0.341331566266910     
  0.762349437723391       0.398151202324890     
  0.668978943385755       0.341902575339652     
  0.758751480951521       0.419121060143624     
  0.648520443706298       0.349221856950382     
  0.757653183257168       0.439453945043958     
  0.630473689763695       0.354948192428569     
  0.245268355841639       0.440275764313617     
  0.227415876938584       0.771931741327579     
  0.226823032291007       0.750077939723159     
  0.249205241367062       0.774451401673495     