 TITLE = "Edge Error"
 VARIABLES = "X", "Y","Estimate1" 
 ZONE T = "Domain", I=       25697  DATAPACKING=POINT, ZONETYPE=ORDERED
  4.378295890000000E-003  0.204367848500000       1.281334884111301E-012
  0.000000000000000E+000  0.210000000000000       2.071861379660346E-012
  4.378295890000000E-003  0.214367848500000       1.350223037071600E-012
  8.337899450000000E-003  0.224767310000000       1.441344230294495E-012
  0.000000000000000E+000  0.230000000000000       1.500685468684164E-012
  8.337899450000000E-003  0.234767310000000       1.066224411227938E-012
  9.019522550000001E-003  0.244580223000000       1.095683434086358E-012
  0.000000000000000E+000  0.250000000000000       1.083136324790837E-012
  9.019522550000001E-003  0.254580223000000       9.469210961531677E-013
  9.028559449999999E-003  0.264830977000000       9.214681601122069E-013
  0.000000000000000E+000  0.270000000000000       1.084618763082985E-012
  9.028559449999999E-003  0.274830977000000       1.128387677080374E-012
  8.946255950000001E-003  0.284969564000000       1.109984565612453E-012
  0.000000000000000E+000  0.290000000000000       1.497983541732272E-012
  8.946255950000001E-003  0.294969564000000       1.537465257068347E-012
  8.829210800000001E-003  0.305027361500000       1.521978753488771E-012
  0.000000000000000E+000  0.310000000000000       1.520127089049449E-012
  8.829210800000001E-003  0.315027361500000       1.540377842849660E-012
  8.755177899999999E-003  0.325035185000000       1.535299974275725E-012
  0.000000000000000E+000  0.330000000000000       1.520127089049449E-012
  8.755177899999999E-003  0.335035185000000       1.434280611705867E-012
  8.710470450000000E-003  0.345029931000000       1.433359831696612E-012
  0.000000000000000E+000  0.350000000000000       1.430429971657214E-012
  8.710470450000000E-003  0.355029931000000       1.434528585013288E-012
  8.682255300000000E-003  0.365022471500000       1.434763168869507E-012
  0.000000000000000E+000  0.370000000000000       1.627754801690980E-012
  8.682255300000000E-003  0.375022471500000       1.629034910519624E-012
  8.664792050000000E-003  0.385015533000000       1.629659727233519E-012
  0.000000000000000E+000  0.390000000000000       1.627754801690980E-012
  8.664792050000000E-003  0.395015533000000       1.500490864641532E-012
  8.654656000000000E-003  0.405010145000000       9.909199945643664E-013
  0.000000000000000E+000  0.410000000000000       7.916995766422275E-013
  8.654656000000000E-003  0.415010145000000       9.899142423029560E-013
  8.649025600000000E-003  0.425006515500000       1.055223651563782E-012
  0.000000000000000E+000  0.430000000000000       1.130186444302220E-012
  8.649025600000000E-003  0.435006515500000       1.128719251814105E-012
  8.645869750000000E-003  0.445004234000000       1.129252038533875E-012
  0.000000000000000E+000  0.450000000000000       1.130186444302220E-012
  8.645869750000000E-003  0.455004234000000       1.128772821791057E-012
  8.644054999999999E-003  0.465002697500000       9.238863278165725E-013
  0.000000000000000E+000  0.470000000000000       9.250588006486564E-013
  8.644054999999999E-003  0.475002697500000       7.624268400844388E-013
  8.643112900000000E-003  0.485001443000000       6.413438772485869E-013
  0.000000000000000E+000  0.490000000000000       6.422506280172781E-013
  8.643112900000000E-003  0.495001443000000       2.581561153908417E-013
  8.642910900000000E-003  0.505000255000000       2.365530040128417E-013
  0.000000000000000E+000  0.510000000000000       2.118549378544386E-013
  8.642910900000000E-003  0.515000255000000       2.365469538323242E-013
  8.643408450000001E-003  0.524999119000000       2.115365989269095E-013
  0.000000000000000E+000  0.530000000000000       2.118549378544386E-013
  8.643408450000001E-003  0.534999119000000       1.496094550564555E-013
  8.644537799999999E-003  0.544998121000000       2.433637360986177E-013
  0.000000000000000E+000  0.550000000000000       1.562317084621831E-013
  8.644537799999999E-003  0.554998121000000       2.434095931674287E-013
  8.646173849999999E-003  0.564997363000000       1.560206211812963E-013
  0.000000000000000E+000  0.570000000000000       2.117520269892949E-013
  8.646173849999999E-003  0.574997363000000       2.115218324413912E-013
  8.648148450000000E-003  0.584996917000000       2.114974020856201E-013
  0.000000000000000E+000  0.590000000000000       2.117520269892961E-013
  8.648148450000000E-003  0.594996917000000       1.282469137205824E-013
  0.000000000000000E+000  0.610000000000000       2.728308993232383E-013
  8.650278549999999E-003  0.614996800500000       2.726389283002562E-013
  8.650278549999999E-003  0.604996800500000       1.282302255377750E-013
  8.652395849999999E-003  0.634996983000000       4.135279332367467E-013
  8.652395849999999E-003  0.624996983000000       3.589867016510803E-013
  0.000000000000000E+000  0.630000000000000       4.137470019036544E-013
  8.654370250000000E-003  0.654997404500000       7.343347348930676E-013
  8.654370250000000E-003  0.644997404500000       4.134824836958918E-013
  0.000000000000000E+000  0.650000000000000       7.346136245352577E-013
  8.656122299999999E-003  0.674998008000000       3.283810362804165E-013
  8.656122299999999E-003  0.664998008000000       7.342775987371773E-013
  0.000000000000000E+000  0.670000000000000       7.346136245352577E-013
  8.657613150000000E-003  0.694998779500000       2.990159504638462E-013
  8.657613150000000E-003  0.684998779500000       3.283706616438034E-013
  0.000000000000000E+000  0.690000000000000       3.284658287871034E-013
  8.658803700000000E-003  0.714999779000000       2.642659482750955E-013
  8.658803700000000E-003  0.704999779000000       2.990252223541185E-013
  0.000000000000000E+000  0.710000000000000       2.990660901890093E-013
  8.659585149999999E-003  0.735001158500000       1.146503898455571E-013
  8.659585149999999E-003  0.725001158500000       1.146721000245229E-013
  0.000000000000000E+000  0.730000000000000       1.146720992721464E-013
  8.659717200000000E-003  0.755003160000000       2.591509587561181E-013
  8.659717200000000E-003  0.745003160000000       2.592328710113016E-013
  0.000000000000000E+000  0.750000000000000       2.418859962168335E-013
  8.658844050000000E-003  0.775006108500000       2.189172223709410E-013
  8.658844050000000E-003  0.765006108500000       2.419303813645586E-013
  0.000000000000000E+000  0.770000000000000       2.418859962168335E-013
  8.656662149999999E-003  0.795010439500000       1.848090416871023E-013
  8.656662149999999E-003  0.785010439500000       1.288468428263420E-013
  0.000000000000000E+000  0.790000000000000       1.849630750422238E-013
  8.653243300000000E-003  0.815016801000000       5.156084325701933E-013
  8.653243300000000E-003  0.805016801000000       3.734262404920813E-013
  0.000000000000000E+000  0.810000000000000       5.163553855034247E-013
  8.649381600000000E-003  0.835026258500000       6.166697592736613E-013
  8.649381600000000E-003  0.825026258500000       5.165491800960956E-013
  0.000000000000000E+000  0.830000000000000       6.180622567272220E-013
  8.646573150000000E-003  0.855040581500000       4.663380463790578E-013
  8.646573150000000E-003  0.845040581500000       6.185895142710976E-013
  0.000000000000000E+000  0.850000000000000       6.180622567272220E-013
  8.645787350000000E-003  0.875062114000000       5.761315439307434E-013
  8.645787350000000E-003  0.865062114000000       5.797302093911205E-013
  0.000000000000000E+000  0.870000000000000       4.301159998379708E-013
  8.644949050000000E-003  0.895091430000000       7.468866076490753E-013
  8.644949050000000E-003  0.885091430000000       7.537646207144023E-013
  0.000000000000000E+000  0.890000000000000       5.157365181299032E-013
  8.643364600000000E-003  0.915124612500000       6.101442146154077E-013
  8.643364600000000E-003  0.905124612500000       6.178167086671588E-013
  0.000000000000000E+000  0.910000000000000       5.157365181299032E-013
  8.661802099999999E-003  0.935167459500000       4.592848461064172E-013
  8.661802099999999E-003  0.925167459500000       4.244170200952118E-013
  0.000000000000000E+000  0.930000000000000       4.630502532105065E-013
  8.751439099999999E-003  0.955321262000000       2.891149210792991E-013
  8.751439099999999E-003  0.945321262000000       4.742672625115971E-013
  0.000000000000000E+000  0.950000000000000       4.630502532105091E-013
  8.217119100000000E-003  0.975133347000000       3.071676433215389E-014
  8.217119100000000E-003  0.965133347000000       1.275217965766019E-013
  0.000000000000000E+000  0.970000000000000       1.316181246387023E-013
  4.367296035000000E-003  0.985620589500000       1.265459053492462E-013
  0.000000000000000E+000  0.990000000000000       4.816670303769414E-013
  4.367296035000000E-003  0.995620589500000       2.979043841261209E-013
  1.436729603500000E-002  0.995620589500000       1.268481314613405E-013
  1.000000000000000E-002   1.00000000000000       4.816670303769410E-013
  2.476306075000000E-002  0.991654538000000       1.039874148141794E-013
  3.000000000000000E-002   1.00000000000000       1.870762647900704E-013
  3.476306075000000E-002  0.991654538000000       1.843173763975417E-013
  4.457327035000000E-002  0.990968880500000       3.158239492089859E-013
  5.000000000000000E-002   1.00000000000000       6.927037915866453E-013
  5.457327034999999E-002  0.990968880500000       7.298432937166817E-013
  6.482212630000000E-002  0.990957906500000       7.098519305232689E-013
  7.000000000000001E-002   1.00000000000000       6.927037915866456E-013
  7.482212630000000E-002  0.990957906500000       6.272995006211011E-013
  8.495979765000000E-002  0.991040412500000       7.317391979645160E-013
  9.000000000000000E-002   1.00000000000000       6.796445605212183E-013
  9.495979765000001E-002  0.991040412500000       7.345388929683519E-013
  0.105017477000000       0.991158993000000       6.908963216451886E-013
  0.110000000000000        1.00000000000000       6.796445605212178E-013
  0.115017477000000       0.991158993000000       5.536082040998360E-013
  0.125025698000000       0.991234863500000       5.511740202053407E-013
  0.130000000000000        1.00000000000000       5.455156607013816E-013
  0.135025698000000       0.991234863500000       4.857607394150081E-013
  0.145021112500000       0.991280799500000       4.849583685810080E-013
  0.150000000000000        1.00000000000000       5.406172358754683E-013
  0.155021112500000       0.991280799500000       5.428124911248718E-013
  0.165014446000000       0.991309184000000       5.424386195698100E-013
  0.170000000000000        1.00000000000000       5.406172358754683E-013
  0.175014446000000       0.991309184000000       5.351339368295073E-013
  0.185008372000000       0.991325798000000       5.349727609734555E-013
  0.190000000000000        1.00000000000000       5.341040251075557E-013
  0.195008372000000       0.991325798000000       5.141200520155044E-013
  0.205003931500000       0.991334419500000       4.017069915799668E-013
  0.210000000000000        1.00000000000000       4.009348584139967E-013
  0.215003931500000       0.991334419500000       4.015492370894755E-013
  0.225001369000000       0.991338317000000       2.563662118738858E-013
  0.230000000000000        1.00000000000000       4.173655236319534E-013
  0.235001369000000       0.991338317000000       4.173886122105447E-013
  0.245000312500000       0.991339928500000       5.026414225842456E-013
  0.250000000000000        1.00000000000000       4.728024669293355E-013
  0.255000312500000       0.991339928500000       5.026257147886162E-013
  0.265000173000000       0.991340706500000       4.727672275278286E-013
  0.270000000000000        1.00000000000000       7.624226631258235E-013
  0.275000173000000       0.991340706500000       7.623526464435497E-013
  0.285000451000000       0.991341341500000       7.623345113837396E-013
  0.290000000000000        1.00000000000000       9.207232556254722E-013
  0.295000451000000       0.991341341500000       9.205752707215910E-013
  0.305000836500000       0.991342084000000       9.205753533226547E-013
  0.310000000000000        1.00000000000000       1.313790960380632E-012
  0.315000836500000       0.991342084000000       1.313469995956681E-012
  0.325001171500000       0.991342975000000       1.313500568812490E-012
  0.330000000000000        1.00000000000000       1.811031665174170E-012
  0.335001171500000       0.991342975000000       1.810419145143849E-012
  0.345001385500000       0.991343972000000       1.810494412270979E-012
  0.350000000000000        1.00000000000000       2.092921990983341E-012
  0.355001385500000       0.991343972000000       2.092011033203925E-012
  0.365001452000000       0.991344999500000       2.133573982284941E-012
  0.370000000000000        1.00000000000000       2.278674021053146E-012
  0.375001452000000       0.991344999500000       2.277471883004018E-012
  0.385001373500000       0.991345975500000       2.684276729571469E-012
  0.390000000000000        1.00000000000000       3.603385850158009E-012
  0.395001373500000       0.991345975500000       3.601194450124090E-012
  0.405001173500000       0.991346824500000       3.702665671079974E-012
  0.410000000000000        1.00000000000000       5.518222442334501E-012
  0.415001173500000       0.991346824500000       5.514516059194005E-012
  0.425000889000000       0.991347492500000       5.514766313433490E-012
  0.430000000000000        1.00000000000000       6.503384913647849E-012
  0.435000889000000       0.991347492500000       6.498733226676971E-012
  0.445000560500000       0.991347949000000       6.498947825518899E-012
  0.450000000000000        1.00000000000000       7.601921544794427E-012
  0.455000560500000       0.991347949000000       7.596308563498407E-012
  0.465000217500000       0.991348183000000       1.457358160044720E-011
  0.470000000000000        1.00000000000000       1.690049171498252E-011
  0.475000217500000       0.991348183000000       1.688796063178762E-011
  0.484999875500000       0.991348196000000       2.583446368260815E-011
  0.490000000000000        1.00000000000000       3.331856506311523E-011
  0.494999875500000       0.991348196000000       3.329439325020485E-011
  0.504999542000000       0.991347991500000       3.329401211098526E-011
  0.510000000000000        1.00000000000000       4.748056886387453E-011
  0.514999542000000       0.991347991500000       4.744775588179912E-011
  0.524999224000000       0.991347576500000       4.744653043152997E-011
  0.530000000000000        1.00000000000000       5.176328003547061E-011
  0.534999224000000       0.991347576500000       5.173019091849025E-011
  0.544998939500000       0.991346963000000       7.391914420067445E-011
  0.550000000000000        1.00000000000000       8.296474026191404E-011
  0.554998939500000       0.991346963000000       8.291729386466889E-011
  0.564998717000000       0.991346176000000       1.578516709667756E-010
  0.570000000000000        1.00000000000000       1.828048407679410E-010
  0.574998717000000       0.991346176000000       1.827147885461319E-010
  0.590000000000000        1.00000000000000       3.106460581177528E-010
  0.594998586500000       0.991345259500000       3.105197083898610E-010
  0.584998586500000       0.991345259500000       2.414590043466536E-010
  0.614998569500000       0.991344273500000       3.948050129763826E-010
  0.604998569500000       0.991344273500000       3.105020376273405E-010
  0.610000000000000        1.00000000000000       3.949315924685580E-010
  0.634998669000000       0.991343286000000       4.192785430350641E-010
  0.624998669000000       0.991343286000000       3.947842338692513E-010
  0.630000000000000        1.00000000000000       4.193791871408830E-010
  0.654998873000000       0.991342357000000       6.941882075909884E-010
  0.644998873000000       0.991342357000000       6.338735351424006E-010
  0.650000000000000        1.00000000000000       6.943060636006646E-010
  0.674999171500000       0.991341530000000       1.503324070499313E-009
  0.664999171500000       0.991341530000000       1.347613510512828E-009
  0.670000000000000        1.00000000000000       1.503494061935631E-009
  0.694999584500000       0.991340837000000       2.897861550081021E-009
  0.684999584500000       0.991340837000000       2.381805885553951E-009
  0.690000000000000        1.00000000000000       2.898075160101802E-009
  0.715000199000000       0.991340327000000       4.460746351488018E-009
  0.705000199000000       0.991340327000000       3.601082069111310E-009
  0.710000000000000        1.00000000000000       4.461015213678841E-009
  0.735001200500000       0.991340113500000       5.134168649628067E-009
  0.725001200500000       0.991340113500000       4.461141026676986E-009
  0.730000000000000        1.00000000000000       5.134640271717601E-009
  0.755002895000000       0.991340404500000       6.249512646544775E-009
  0.745002895000000       0.991340404500000       5.135090883498367E-009
  0.750000000000000        1.00000000000000       6.250773785972918E-009
  0.775005722500000       0.991341466000000       1.571497025288025E-008
  0.765005722500000       0.991341466000000       1.421436738630216E-008
  0.770000000000000        1.00000000000000       1.572180925141309E-008
  0.795010279500000       0.991343459500000       3.458396979899891E-008
  0.785010279500000       0.991343459500000       3.167235715451877E-008
  0.790000000000000        1.00000000000000       3.461288292330003E-008
  0.815017367500000       0.991346171500000       6.333297301198407E-008
  0.805017367500000       0.991346171500000       5.471687638744991E-008
  0.810000000000000        1.00000000000000       6.342329681834939E-008
  0.835028107500000       0.991348760500000       9.728079671638284E-008
  0.825028107500000       0.991348760500000       8.344891304815145E-008
  0.830000000000000        1.00000000000000       9.749373136385329E-008
  0.855044141500000       0.991349863000000       1.279916633513744E-007
  0.845044141500000       0.991349863000000       1.034925896480107E-007
  0.850000000000000        1.00000000000000       1.283868017504276E-007
  0.875067482500000       0.991348842500000       1.711710926886745E-007
  0.865067482500000       0.991348842500000       1.287213943092198E-007
  0.870000000000000        1.00000000000000       1.718839513427893E-007
  0.895098253500000       0.991348226500000       3.195265088683137E-007
  0.885098253500000       0.991348226500000       2.304315049838883E-007
  0.890000000000000        1.00000000000000       3.213305364652104E-007
  0.915132124000000       0.991349123500000       7.891711733285099E-007
  0.905132124000000       0.991349123500000       7.125424214485191E-007
  0.910000000000000        1.00000000000000       7.950206672795793E-007
  0.935174657500000       0.991331000000000       1.517019376795560E-006
  0.925174657500000       0.991331000000000       1.424978388103476E-006
  0.930000000000000        1.00000000000000       1.529027412527191E-006
  0.955327098000000       0.991242725000000       2.064508309587365E-006
  0.945327098000000       0.991242725000000       2.022440666156112E-006
  0.950000000000000        1.00000000000000       2.079895317662005E-006
  0.975136956000000       0.991779272000000       2.037962479653553E-006
  0.965136956000000       0.991779272000000       2.016197415712134E-006
  0.970000000000000        1.00000000000000       2.133675547659283E-006
  0.985621033000000       0.995632260500000       1.518858708199861E-006
  0.990000000000000        1.00000000000000       2.133675547659283E-006
  0.995621033000000       0.995632260500000       1.313945618299778E-006
  0.995621033000000       0.985632260500000       1.410529338088695E-006
   1.00000000000000       0.990000000000000       2.124454710751131E-006
  0.991658165500000       0.975233312000000       1.268528103027780E-006
   1.00000000000000       0.970000000000000       2.667550748470382E-006
  0.991658165500000       0.965233312000000       2.626877386120718E-006
  0.990974828000000       0.955420782000000       2.883167524146624E-006
   1.00000000000000       0.950000000000000       1.129276137801206E-005
  0.990974828000000       0.945420782000000       1.188900969239233E-005
  0.990965339000000       0.935170441500000       1.422768886271697E-005
   1.00000000000000       0.930000000000000       4.322998876486272E-005
  0.990965339000000       0.925170441500000       4.500043837905907E-005
  0.991048185000000       0.915032429500000       5.462986850891344E-005
   1.00000000000000       0.910000000000000       1.556473936772419E-004
  0.991048185000000       0.905032429500000       1.598403541821998E-004
  0.991166004000000       0.894975511000000       1.951635606042554E-004
   1.00000000000000       0.890000000000000       5.183864405094231E-004
  0.991166004000000       0.884975511000000       5.255814643274685E-004
  0.991240314500000       0.874968848000000       6.385835227391865E-004
   1.00000000000000       0.870000000000000       1.579305218367169E-003
  0.991240314500000       0.864968848000000       1.590490838311432E-003
  0.991284347500000       0.854975324500000       1.911408492940197E-003
   1.00000000000000       0.850000000000000       4.386432485299008E-003
  0.991284347500000       0.844975324500000       4.402117790996004E-003
  0.991310916500000       0.834983732500000       5.218593805698429E-003
   1.00000000000000       0.830000000000000       1.110967072818301E-002
  0.991310916500000       0.824983732500000       1.112841701852251E-002
  0.991325971000000       0.814990962000000       1.300475115204745E-002
   1.00000000000000       0.810000000000000       2.574360820958800E-002
  0.991325971000000       0.804990962000000       2.576271327529528E-002
  0.991332781000000       0.794995352000000       2.968810717590137E-002
   1.00000000000000       0.790000000000000       5.486171482120146E-002
  0.991332781000000       0.784995352000000       5.488207209134756E-002
  0.991332475500000       0.774994995000000       6.243968717325742E-002
   1.00000000000000       0.770000000000000       0.108202163616420     
  0.991332475500000       0.764994995000000       0.108243248838321     
  0.991321685500000       0.754985681000000       0.121884503644417     
   1.00000000000000       0.750000000000000       0.198684203025385     
  0.991321685500000       0.744985681000000       0.198853169309125     
  0.991288915000000       0.734955756500000       0.222813258448593     
   1.00000000000000       0.730000000000000       0.340358205131392     
  0.991288915000000       0.724955756500000       0.341110457816877     
  0.991209084000000       0.714858847000000       0.386051115386600     
   1.00000000000000       0.710000000000000       0.543498138369036     
  0.991209084000000       0.704858847000000       0.545907555275418     
  0.991042029000000       0.694404708500000       0.617043688966008     
   1.00000000000000       0.690000000000000       0.789249305619763     
  0.991042029000000       0.684404708500000       0.787853868667699     
  0.996331385000000       0.676006786000000       0.553516496809070     
   1.00000000000000       0.675000000000000       0.549861225305379     
  0.996331385000000       0.671006786000000       0.418362433692274     
  0.988595128000000       0.670374849500000       0.447637059919271     
  0.992331685500000       0.668111145500000       0.429237352888804     
  0.988264043500000       0.666472423000000       0.478812300202606     
  0.996000300500000       0.662104359500000       0.530566094671907     
  0.996000300500000       0.667104359500000       0.543026086952621     
   1.00000000000000       0.665000000000000       0.586973684628756     
  0.995811431000000       0.657390672500000       0.588141926203327     
   1.00000000000000       0.655000000000000       0.632973327105621     
  0.995811431000000       0.652390672500000       0.610541086151768     
  0.987320587000000       0.652329826500000       0.593085691309810     
  0.991534487000000       0.649862908500000       0.634257501538257     
  0.987232212000000       0.647411390000000       0.629572279512003     
  0.995723056000000       0.642472236000000       0.671313328768711     
  0.995723056000000       0.647472236000000       0.640556174632928     
   1.00000000000000       0.645000000000000       0.679458567838020     
  0.995687632500000       0.637493841000000       0.689996131838892     
   1.00000000000000       0.635000000000000       0.723305997544447     
  0.995687632500000       0.632493841000000       0.720635778552238     
  0.987047215000000       0.632491767500000       0.698677765411776     
  0.991363176000000       0.629992411000000       0.734894683044683     
  0.987035126000000       0.627496496500000       0.733736684534710     
  0.995675543500000       0.622498570000000       0.761747908216226     
  0.995675543500000       0.627498570000000       0.734971216475557     
   1.00000000000000       0.625000000000000       0.762605925013280     
  0.995670744000000       0.617499427500000       0.774155216211907     
   1.00000000000000       0.615000000000000       0.793418584072726     
  0.995670744000000       0.612499427500000       0.793253461898945     
  0.987008631500000       0.612498797500000       0.784455504412241     
  0.991332140000000       0.609999773500000       0.803706062255868     
  0.986999283500000       0.607499716000000       0.802852461482491     
  0.995661396000000       0.602500346000000       0.809416424910070     
  0.995661396000000       0.607500346000000       0.805005103267080     
   1.00000000000000       0.605000000000000       0.808201563784822     
  0.995624136000000       0.597504797000000       0.823728041506282     
   1.00000000000000       0.595000000000000       0.808201563784822     
  0.995624136000000       0.592504797000000       0.824506303271720     
  0.986846341000000       0.592521561500000       0.842942860087800     
  0.991116920000000       0.590026239500000       0.815192286467013     
  0.986714989000000       0.587538207000000       0.824562634287720     
  0.995492784000000       0.582521442500000       0.838984461701781     
  0.995492784000000       0.587521442500000       0.835605304810828     
   1.00000000000000       0.585000000000000       0.798301446101420     
  0.993250951500000       0.574007436500000       0.544663442618743     
  0.995047592000000       0.577566903500000       0.896917408278740     
  0.998203359500000       0.576440533000000       0.635964702539768     
  0.998203359500000       0.571440533000000       0.366795377024912     
  0.998203359500000       0.573940533000000       0.334151537809282     
   1.00000000000000       0.572500000000000       0.400515664251569     
   1.00000000000000       0.577500000000000       0.400515664251569     
  0.984440004500000       0.569142721500000       0.578258558039835     
  0.985628830000000       0.572755944000000       0.835355587545000     
  0.988906358500000       0.571520584500000       0.618300597248876     
  0.989730040500000       0.566461923500000       0.390675647977472     
  0.990045404500000       0.568791787000000       0.392634285601805     
  0.992057912000000       0.567346348500000       0.365433467466479     
  0.991234230000000       0.572405009500000       0.480655947250999     
  0.993724260500000       0.563761381500000       0.352253356157221     
  0.993884357000000       0.566262497000000       0.372097441303641     
  0.995866069500000       0.565007393500000       0.373062405731720     
  0.997852986500000       0.561253139000000       0.371926398342656     
  0.997852986500000       0.563753139000000       0.359334649379314     
   1.00000000000000       0.562500000000000       0.374026110475414     
   1.00000000000000       0.567500000000000       0.375209457482150     
  0.998013083000000       0.566254254500000       0.349758647579519     
  0.998013083000000       0.568754254500000       0.351968743476023     
  0.996216442500000       0.570194787500000       0.428942120149298     
  0.994389997500000       0.571278639000000       0.410279034515539     
  0.994199721000000       0.568592360500000       0.330106614694123     
  0.996651072000000       0.556977359500000       0.306844984689409     
  0.997561519000000       0.558762775500000       0.417380253977559     
  0.999089553000000       0.558214584000000       0.378814155419027     
  0.999089553000000       0.555714584000000       0.322548609251265     
  0.999089553000000       0.556964584000000       0.206648368953521     
   1.00000000000000       0.556250000000000       0.348358722806718     
   1.00000000000000       0.558750000000000       0.244563054530989     
  0.992269276500000       0.554466971000000       0.298616860438427     
  0.992913523500000       0.556277179500000       0.391453586443944     
  0.994478791000000       0.555715342500000       0.345013005417641     
  0.994823451000000       0.553200830500000       0.406499330980929     
  0.994979424000000       0.554364337500000       0.239915487779670     
  0.995968331000000       0.553660034000000       0.393052508869274     
  0.995623671000000       0.556174546000000       0.280222641161223     
  0.996839899000000       0.551872970000000       0.960629841630575     
  0.996887451500000       0.553123124500000       0.416641597423624     
  0.997914992500000       0.552499567500000       0.999885592275213     
  0.998933720000000       0.550624706500000        2.31278928772085     
  0.998933720000000       0.551874706500000       0.987930818306820     
   1.00000000000000       0.551250000000000        2.33935710817402     
   1.00000000000000       0.553750000000000       0.776885883966592     
  0.998981272500000       0.553124861000000       0.742763230204022     