TITLE = "Visualization of the solution"
VARIABLES = "x","y","Density","Momentum_x","Momentum_y","Energy","Pressure","Temperature","Pressure_Coefficient","Mach"
ZONE NODES= 13789, ELEMENTS= 27342, DATAPACKING=POINT, ZONETYPE=FEQUADRILATERAL
8.757530e-03	2.087357e-01	2.095000e+02	1.033383e+04	1.081026e-11	1.207072e+08	8.202730e+05	6.514396e+02	-3.654196e-15	1.700000e+00	
9.903467e-01	1.295952e-02	1.143890e+02	6.568685e+03	-1.876877e+03	6.562201e+07	7.350881e+05	6.405755e+02	-3.342367e-01	1.223875e+00	
9.912416e-01	9.912645e-01	2.095000e+02	1.033383e+04	3.294703e-05	1.207072e+08	8.202730e+05	6.514396e+02	1.810765e-08	1.700000e+00	
8.734767e-03	9.912408e-01	2.095000e+02	1.033383e+04	1.662457e-13	1.207072e+08	8.202730e+05	6.514396e+02	0.000000e+00	1.700000e+00	
4.511199e-01	5.773054e-01	2.095000e+02	1.033383e+04	-2.755544e-06	1.207072e+08	8.202730e+05	6.514396e+02	-4.688735e-10	1.700000e+00	
4.676615e-01	5.750272e-01	2.095000e+02	1.033383e+04	-2.382661e-06	1.207072e+08	8.202730e+05	6.514396e+02	-2.607817e-10	1.700000e+00	
4.873511e-01	5.730949e-01	2.095000e+02	1.033383e+04	4.428318e-06	1.207072e+08	8.202730e+05	6.514396e+02	9.795767e-10	1.700000e+00	
5.081116e-01	5.718267e-01	2.095000e+02	1.033383e+04	2.463136e-05	1.207072e+08	8.202730e+05	6.514396e+02	4.056782e-09	1.700000e+00	
5.290889e-01	5.715597e-01	2.095000e+02	1.033383e+04	5.096879e-05	1.207072e+08	8.202730e+05	6.514396e+02	9.093184e-09	1.700000e+00	
5.466453e-01	5.733812e-01	2.095000e+02	1.033383e+04	6.867338e-05	1.207072e+08	8.202730e+05	6.514396e+02	1.283416e-08	1.700000e+00	
5.634832e-01	5.673808e-01	2.095000e+02	1.033383e+04	8.981337e-05	1.207072e+08	8.202730e+05	6.514396e+02	1.202889e-08	1.700000e+00	
4.194056e-01	5.873620e-01	2.095000e+02	1.033383e+04	-1.001983e-06	1.207072e+08	8.202730e+05	6.514396e+02	-1.660247e-10	1.700000e+00	
4.080021e-01	5.798478e-01	2.095000e+02	1.033383e+04	-7.228784e-07	1.207072e+08	8.202730e+05	6.514396e+02	-1.276210e-10	1.700000e+00	
4.336453e-01	5.705020e-01	2.095000e+02	1.033383e+04	-2.446253e-06	1.207072e+08	8.202730e+05	6.514396e+02	-4.472699e-10	1.700000e+00	
4.151160e-01	5.726217e-01	2.095000e+02	1.033383e+04	-1.508013e-06	1.207072e+08	8.202730e+05	6.514396e+02	-2.508989e-10	1.700000e+00	
4.404937e-01	5.891936e-01	2.095000e+02	1.033383e+04	-1.984725e-06	1.207072e+08	8.202730e+05	6.514396e+02	-3.258958e-10	1.700000e+00	
4.594203e-01	5.902034e-01	2.095000e+02	1.033383e+04	-2.713814e-06	1.207072e+08	8.202730e+05	6.514396e+02	-4.617625e-10	1.700000e+00	
4.546766e-01	5.624426e-01	2.095000e+02	1.033383e+04	-2.516576e-06	1.207072e+08	8.202730e+05	6.514396e+02	-2.662922e-10	1.700000e+00	
4.751148e-01	5.585265e-01	2.095000e+02	1.033383e+04	5.085289e-06	1.207072e+08	8.202730e+05	6.514396e+02	1.120618e-09	1.700000e+00	
4.784887e-01	5.894553e-01	2.095000e+02	1.033383e+04	-2.762321e-06	1.207072e+08	8.202730e+05	6.514396e+02	-3.154814e-10	1.700000e+00	
4.963865e-01	5.560374e-01	2.095000e+02	1.033383e+04	2.801225e-05	1.207072e+08	8.202730e+05	6.514396e+02	4.667380e-09	1.700000e+00	
4.984185e-01	5.885567e-01	2.095000e+02	1.033383e+04	2.549044e-06	1.207072e+08	8.202730e+05	6.514396e+02	6.414576e-10	1.700000e+00	
5.186812e-01	5.879769e-01	2.095000e+02	1.033383e+04	1.883273e-05	1.207072e+08	8.202730e+05	6.514396e+02	3.150635e-09	1.700000e+00	
5.186874e-01	5.545560e-01	2.095000e+02	1.033383e+04	5.615084e-05	1.207072e+08	8.202730e+05	6.514396e+02	1.053744e-08	1.700000e+00	
5.384673e-01	5.877472e-01	2.095000e+02	1.033383e+04	4.326529e-05	1.207072e+08	8.202730e+05	6.514396e+02	7.393188e-09	1.700000e+00	
5.437744e-01	5.546200e-01	2.095000e+02	1.033383e+04	8.531769e-05	1.207072e+08	8.202730e+05	6.514396e+02	1.243072e-08	1.700000e+00	
5.581844e-01	5.862667e-01	2.095000e+02	1.033383e+04	7.053802e-05	1.207072e+08	8.202730e+05	6.514396e+02	1.367766e-08	1.700000e+00	
5.833782e-01	5.600301e-01	2.095000e+02	1.033383e+04	-7.792169e-05	1.207072e+08	8.202730e+05	6.514396e+02	-1.767505e-08	1.700000e+00	
5.671358e-01	5.475954e-01	2.095000e+02	1.033383e+04	-1.693754e-05	1.207072e+08	8.202730e+05	6.514396e+02	-6.015855e-09	1.700000e+00	
5.814965e-01	5.829706e-01	2.095000e+02	1.033383e+04	9.485867e-05	1.207072e+08	8.202730e+05	6.514396e+02	1.021979e-08	1.700000e+00	
5.850328e-01	5.426798e-01	2.094999e+02	1.033382e+04	-1.246803e-03	1.207072e+08	8.202729e+05	6.514396e+02	-2.048713e-07	1.700003e+00	
3.936951e-01	6.068968e-01	2.095000e+02	1.033383e+04	9.217284e-08	1.207072e+08	8.202730e+05	6.514396e+02	9.740259e-12	1.700000e+00	
4.103539e-01	6.052979e-01	2.095000e+02	1.033383e+04	-8.969617e-08	1.207072e+08	8.202730e+05	6.514396e+02	-2.521943e-11	1.700000e+00	
3.986719e-01	5.897108e-01	2.095000e+02	1.033383e+04	-1.353988e-07	1.207072e+08	8.202730e+05	6.514396e+02	-3.320385e-11	1.700000e+00	
4.299416e-01	6.050333e-01	2.095000e+02	1.033383e+04	-6.772832e-07	1.207072e+08	8.202730e+05	6.514396e+02	-1.171499e-10	1.700000e+00	
3.993029e-01	5.703999e-01	2.095000e+02	1.033383e+04	-7.509672e-07	1.207072e+08	8.202730e+05	6.514396e+02	-1.332704e-10	1.700000e+00	
4.497193e-01	6.054800e-01	2.095000e+02	1.033383e+04	-1.615114e-06	1.207072e+08	8.202730e+05	6.514396e+02	-2.634127e-10	1.700000e+00	
4.393915e-01	5.496440e-01	2.095000e+02	1.033383e+04	-2.897163e-06	1.207072e+08	8.202730e+05	6.514396e+02	-3.280664e-10	1.700000e+00	
4.157251e-01	5.557705e-01	2.095000e+02	1.033383e+04	-2.097025e-06	1.207072e+08	8.202730e+05	6.514396e+02	-4.326988e-10	1.700000e+00	
3.962283e-01	5.540017e-01	2.095000e+02	1.033383e+04	-1.256982e-06	1.207072e+08	8.202730e+05	6.514396e+02	-2.220966e-10	1.700000e+00	
4.614418e-01	5.445548e-01	2.095000e+02	1.033383e+04	4.233753e-06	1.207072e+08	8.202730e+05	6.514396e+02	1.033016e-09	1.700000e+00	
4.692348e-01	6.055133e-01	2.095000e+02	1.033383e+04	-2.535588e-06	1.207072e+08	8.202730e+05	6.514396e+02	-4.404439e-10	1.700000e+00	
4.833432e-01	5.409189e-01	2.095000e+02	1.033383e+04	2.774711e-05	1.207072e+08	8.202730e+05	6.514396e+02	4.798898e-09	1.700000e+00	
4.889437e-01	6.051008e-01	2.095000e+02	1.033383e+04	-3.037176e-06	1.207072e+08	8.202730e+05	6.514396e+02	-3.913717e-10	1.700000e+00	
5.089299e-01	6.046322e-01	2.095000e+02	1.033383e+04	3.846937e-07	1.207072e+08	8.202730e+05	6.514396e+02	2.661735e-10	1.700000e+00	
5.057198e-01	5.381883e-01	2.095000e+02	1.033383e+04	5.428117e-05	1.207072e+08	8.202730e+05	6.514396e+02	1.116803e-08	1.700000e+00	
5.289737e-01	6.042388e-01	2.095000e+02	1.033383e+04	1.244710e-05	1.207072e+08	8.202730e+05	6.514396e+02	2.312275e-09	1.700000e+00	
5.288962e-01	5.359213e-01	2.095000e+02	1.033383e+04	8.316624e-05	1.207072e+08	8.202730e+05	6.514396e+02	1.153892e-08	1.700000e+00	
5.490641e-01	6.036872e-01	2.095000e+02	1.033383e+04	3.812782e-05	1.207072e+08	8.202730e+05	6.514396e+02	6.517851e-09	1.700000e+00	
5.522113e-01	5.326454e-01	2.095000e+02	1.033383e+04	-1.313027e-05	1.207072e+08	8.202730e+05	6.514396e+02	-6.427544e-09	1.700000e+00	
6.015859e-01	5.702466e-01	2.095000e+02	1.033383e+04	-3.768549e-04	1.207072e+08	8.202730e+05	6.514396e+02	-6.202775e-08	1.700001e+00	
5.697378e-01	6.029637e-01	2.095000e+02	1.033383e+04	6.869384e-05	1.207072e+08	8.202730e+05	6.514396e+02	1.299465e-08	1.700000e+00	
5.745659e-01	5.287883e-01	2.094999e+02	1.033382e+04	-1.881752e-03	1.207072e+08	8.202729e+05	6.514396e+02	-3.169073e-07	1.700004e+00	
6.011958e-01	5.497707e-01	2.094999e+02	1.033382e+04	-3.000083e-03	1.207071e+08	8.202729e+05	6.514396e+02	-4.708132e-07	1.700006e+00	
6.036342e-01	5.902721e-01	2.095000e+02	1.033383e+04	7.488627e-06	1.207072e+08	8.202730e+05	6.514396e+02	-1.393732e-09	1.700000e+00	
5.902227e-01	6.040285e-01	2.095000e+02	1.033383e+04	9.221805e-05	1.207072e+08	8.202730e+05	6.514396e+02	1.375336e-08	1.700000e+00	
5.984773e-01	5.276725e-01	2.094992e+02	1.033380e+04	-1.650966e-02	1.207068e+08	8.202723e+05	6.514395e+02	-2.581662e-06	1.700032e+00	
6.070294e-01	6.065957e-01	2.095000e+02	1.033383e+04	8.239999e-05	1.207072e+08	8.202730e+05	6.514396e+02	1.074087e-08	1.700000e+00	
3.795655e-01	6.194779e-01	2.095000e+02	1.033383e+04	8.602816e-08	1.207072e+08	8.202730e+05	6.514396e+02	1.534214e-11	1.700000e+00	
4.006021e-01	6.215869e-01	2.095000e+02	1.033383e+04	1.050634e-07	1.207072e+08	8.202730e+05	6.514396e+02	1.395537e-11	1.700000e+00	
3.795928e-01	5.988095e-01	2.095000e+02	1.033383e+04	1.078079e-07	1.207072e+08	8.202730e+05	6.514396e+02	1.470814e-11	1.700000e+00	
4.200956e-01	6.216820e-01	2.095000e+02	1.033383e+04	-4.955370e-09	1.207072e+08	8.202730e+05	6.514396e+02	-9.544760e-12	1.700000e+00	
3.807789e-01	5.799282e-01	2.095000e+02	1.033383e+04	1.149900e-08	1.207072e+08	8.202730e+05	6.514396e+02	-8.189053e-12	1.700000e+00	
4.398178e-01	6.217417e-01	2.095000e+02	1.033383e+04	-4.264653e-07	1.207072e+08	8.202730e+05	6.514396e+02	-8.040693e-11	1.700000e+00	
4.243445e-01	5.350678e-01	2.095000e+02	1.033383e+04	-2.954348e-06	1.207072e+08	8.202730e+05	6.514396e+02	-3.665944e-10	1.700000e+00	
3.811616e-01	5.616352e-01	2.095000e+02	1.033383e+04	-3.077249e-07	1.207072e+08	8.202730e+05	6.514396e+02	-6.495516e-11	1.700000e+00	
4.026086e-01	5.389934e-01	2.095000e+02	1.033383e+04	-2.021960e-06	1.207072e+08	8.202730e+05	6.514396e+02	-4.301592e-10	1.700000e+00	
4.469490e-01	5.304232e-01	2.095000e+02	1.033383e+04	3.027580e-06	1.207072e+08	8.202730e+05	6.514396e+02	8.363194e-10	1.700000e+00	
4.595735e-01	6.217978e-01	2.095000e+02	1.033383e+04	-1.289207e-06	1.207072e+08	8.202730e+05	6.514396e+02	-2.147772e-10	1.700000e+00	
3.830142e-01	5.440055e-01	2.095000e+02	1.033383e+04	-1.034545e-06	1.207072e+08	8.202730e+05	6.514396e+02	-1.810015e-10	1.700000e+00	
4.694486e-01	5.262877e-01	2.095000e+02	1.033383e+04	2.575046e-05	1.207072e+08	8.202730e+05	6.514396e+02	4.579917e-09	1.700000e+00	
4.793532e-01	6.216677e-01	2.095000e+02	1.033383e+04	-2.269792e-06	1.207072e+08	8.202730e+05	6.514396e+02	-4.048557e-10	1.700000e+00	
4.920322e-01	5.228073e-01	2.095000e+02	1.033383e+04	5.343548e-05	1.207072e+08	8.202730e+05	6.514396e+02	1.113832e-08	1.700000e+00	
4.992507e-01	6.214020e-01	2.095000e+02	1.033383e+04	-3.091703e-06	1.207072e+08	8.202730e+05	6.514396e+02	-4.585176e-10	1.700000e+00	
5.192550e-01	6.211120e-01	2.095000e+02	1.033383e+04	-1.452328e-06	1.207072e+08	8.202730e+05	6.514396e+02	-3.035175e-11	1.700000e+00	
5.148658e-01	5.197145e-01	2.095000e+02	1.033383e+04	8.566443e-05	1.207072e+08	8.202730e+05	6.514396e+02	1.145882e-08	1.700000e+00	
5.393328e-01	6.208171e-01	2.095000e+02	1.033383e+04	7.772536e-06	1.207072e+08	8.202730e+05	6.514396e+02	1.654320e-09	1.700000e+00	
5.378440e-01	5.165314e-01	2.095000e+02	1.033383e+04	-1.663556e-05	1.207072e+08	8.202730e+05	6.514396e+02	-8.153306e-09	1.700000e+00	
5.595386e-01	6.205504e-01	2.095000e+02	1.033383e+04	3.186048e-05	1.207072e+08	8.202730e+05	6.514396e+02	5.326106e-09	1.700000e+00	
5.606568e-01	5.130180e-01	2.094999e+02	1.033382e+04	-2.132887e-03	1.207071e+08	8.202729e+05	6.514396e+02	-3.756635e-07	1.700005e+00	
5.797469e-01	6.206348e-01	2.095000e+02	1.033383e+04	6.120597e-05	1.207072e+08	8.202730e+05	6.514396e+02	1.049599e-08	1.700000e+00	
6.201209e-01	5.793620e-01	2.095000e+02	1.033382e+04	-9.695906e-04	1.207072e+08	8.202730e+05	6.514396e+02	-1.478919e-07	1.700002e+00	
6.193825e-01	5.593835e-01	2.094997e+02	1.033382e+04	-5.716357e-03	1.207071e+08	8.202728e+05	6.514396e+02	-8.689247e-07	1.700011e+00	
6.189337e-01	5.389555e-01	2.094987e+02	1.033379e+04	-2.942697e-02	1.207064e+08	8.202719e+05	6.514395e+02	-4.459220e-06	1.700055e+00	
5.834249e-01	5.095836e-01	2.094989e+02	1.033379e+04	-2.313059e-02	1.207065e+08	8.202720e+05	6.514395e+02	-3.753416e-06	1.700047e+00	
6.211158e-01	5.986493e-01	2.095000e+02	1.033383e+04	-9.313749e-05	1.207072e+08	8.202730e+05	6.514396e+02	-1.595593e-08	1.700000e+00	
5.995088e-01	6.209651e-01	2.095000e+02	1.033383e+04	8.494665e-05	1.207072e+08	8.202730e+05	6.514396e+02	1.416948e-08	1.700000e+00	
6.204810e-01	6.191882e-01	2.095000e+02	1.033383e+04	8.970636e-05	1.207072e+08	8.202730e+05	6.514396e+02	1.092544e-08	1.700000e+00	
6.201720e-01	5.188477e-01	2.094938e+02	1.033364e+04	-1.354889e-01	1.207036e+08	8.202678e+05	6.514390e+02	-2.052590e-05	1.700253e+00	
6.055582e-01	5.054008e-01	2.094933e+02	1.033363e+04	-1.443589e-01	1.207033e+08	8.202674e+05	6.514390e+02	-2.205688e-05	1.700272e+00	
6.231227e-01	5.021206e-01	2.094782e+02	1.033317e+04	-4.811508e-01	1.206946e+08	8.202546e+05	6.514374e+02	-7.216024e-05	1.700888e+00	
3.698569e-01	6.386342e-01	2.095000e+02	1.033383e+04	3.485681e-08	1.207072e+08	8.202730e+05	6.514396e+02	6.133568e-12	1.700000e+00	
3.610988e-01	6.245048e-01	2.095000e+02	1.033383e+04	4.133420e-08	1.207072e+08	8.202730e+05	6.514396e+02	7.277331e-12	1.700000e+00	
3.900124e-01	6.381082e-01	2.095000e+02	1.033383e+04	7.417561e-08	1.207072e+08	8.202730e+05	6.514396e+02	1.364111e-11	1.700000e+00	
3.623483e-01	6.080506e-01	2.095000e+02	1.033383e+04	7.461809e-08	1.207072e+08	8.202730e+05	6.514396e+02	1.343100e-11	1.700000e+00	
4.100924e-01	6.383752e-01	2.095000e+02	1.033383e+04	1.048022e-07	1.207072e+08	8.202730e+05	6.514396e+02	1.658640e-11	1.700000e+00	
3.628873e-01	5.891894e-01	2.095000e+02	1.033383e+04	9.834426e-08	1.207072e+08	8.202730e+05	6.514396e+02	1.726790e-11	1.700000e+00	
4.299296e-01	6.384427e-01	2.095000e+02	1.033383e+04	5.529018e-08	1.207072e+08	8.202730e+05	6.514396e+02	2.009808e-12	1.700000e+00	
3.635898e-01	5.703789e-01	2.095000e+02	1.033383e+04	7.464085e-08	1.207072e+08	8.202730e+05	6.514396e+02	7.436289e-12	1.700000e+00	
4.096298e-01	5.204285e-01	2.095000e+02	1.033383e+04	-2.965242e-06	1.207072e+08	8.202730e+05	6.514396e+02	-3.927658e-10	1.700000e+00	
4.323040e-01	5.160140e-01	2.095000e+02	1.033383e+04	2.099524e-06	1.207072e+08	8.202730e+05	6.514396e+02	6.558825e-10	1.700000e+00	
4.497638e-01	6.384533e-01	2.095000e+02	1.033383e+04	-2.477954e-07	1.207072e+08	8.202730e+05	6.514396e+02	-5.190237e-11	1.700000e+00	
3.647223e-01	5.517824e-01	2.095000e+02	1.033383e+04	-1.369714e-07	1.207072e+08	8.202730e+05	6.514396e+02	-3.286036e-11	1.700000e+00	
3.873881e-01	5.255229e-01	2.095000e+02	1.033383e+04	-1.853632e-06	1.207072e+08	8.202730e+05	6.514396e+02	-3.842552e-10	1.700000e+00	
4.551275e-01	5.118385e-01	2.095000e+02	1.033383e+04	2.337089e-05	1.207072e+08	8.202730e+05	6.514396e+02	4.228868e-09	1.700000e+00	
4.696156e-01	6.384012e-01	2.095000e+02	1.033383e+04	-9.976519e-07	1.207072e+08	8.202730e+05	6.514396e+02	-1.690321e-10	1.700000e+00	
3.667288e-01	5.328648e-01	2.095000e+02	1.033383e+04	-7.070621e-07	1.207072e+08	8.202730e+05	6.514396e+02	-1.307782e-10	1.700000e+00	
4.779537e-01	5.080171e-01	2.095000e+02	1.033383e+04	5.265976e-05	1.207072e+08	8.202730e+05	6.514396e+02	1.074428e-08	1.700000e+00	
4.895117e-01	6.382697e-01	2.095000e+02	1.033383e+04	-2.019171e-06	1.207072e+08	8.202730e+05	6.514396e+02	-3.539637e-10	1.700000e+00	
5.094726e-01	6.380941e-01	2.095000e+02	1.033383e+04	-3.011596e-06	1.207072e+08	8.202730e+05	6.514396e+02	-4.886756e-10	1.700000e+00	
5.007993e-01	5.044858e-01	2.095000e+02	1.033383e+04	8.552184e-05	1.207072e+08	8.202730e+05	6.514396e+02	1.165889e-08	1.700000e+00	
5.294938e-01	6.379153e-01	2.095000e+02	1.033383e+04	-2.590057e-06	1.207072e+08	8.202730e+05	6.514396e+02	-2.285371e-10	1.700000e+00	
5.236385e-01	5.010281e-01	2.095000e+02	1.033383e+04	-1.685868e-05	1.207072e+08	8.202730e+05	6.514396e+02	-7.447032e-09	1.700000e+00	
5.495691e-01	6.377681e-01	2.095000e+02	1.033383e+04	4.139543e-06	1.207072e+08	8.202730e+05	6.514396e+02	1.026716e-09	1.700000e+00	
5.463763e-01	4.974188e-01	2.094999e+02	1.033382e+04	-2.280483e-03	1.207071e+08	8.202729e+05	6.514396e+02	-3.947654e-07	1.700005e+00	
5.696622e-01	6.377218e-01	2.095000e+02	1.033383e+04	2.296743e-05	1.207072e+08	8.202730e+05	6.514396e+02	3.879174e-09	1.700000e+00	
6.371865e-01	5.690718e-01	2.094996e+02	1.033381e+04	-9.394641e-03	1.207070e+08	8.202726e+05	6.514396e+02	-1.408325e-06	1.700017e+00	
5.690102e-01	4.935659e-01	2.094987e+02	1.033379e+04	-2.628995e-02	1.207064e+08	8.202719e+05	6.514395e+02	-4.338816e-06	1.700054e+00	
6.369188e-01	5.491093e-01	2.094980e+02	1.033377e+04	-4.388174e-02	1.207061e+08	8.202713e+05	6.514394e+02	-6.575726e-06	1.700081e+00	
6.375372e-01	5.887116e-01	2.094999e+02	1.033382e+04	-1.747349e-03	1.207072e+08	8.202729e+05	6.514396e+02	-2.607789e-07	1.700003e+00	
5.896811e-01	6.377742e-01	2.095000e+02	1.033383e+04	5.125804e-05	1.207072e+08	8.202730e+05	6.514396e+02	8.268130e-09	1.700000e+00	
6.296248e-01	6.382865e-01	2.095000e+02	1.033383e+04	9.794784e-05	1.207072e+08	8.202730e+05	6.514396e+02	1.472114e-08	1.700000e+00	
6.384966e-01	6.243168e-01	2.095000e+02	1.033383e+04	3.314125e-05	1.207072e+08	8.202730e+05	6.514396e+02	3.280620e-09	1.700000e+00	
6.097479e-01	6.376678e-01	2.095000e+02	1.033383e+04	7.921193e-05	1.207072e+08	8.202730e+05	6.514396e+02	1.347752e-08	1.700000e+00	
6.376700e-01	6.078544e-01	2.095000e+02	1.033383e+04	-2.274813e-04	1.207072e+08	8.202730e+05	6.514396e+02	-3.444726e-08	1.700000e+00	
6.370403e-01	5.291758e-01	2.094919e+02	1.033358e+04	-1.784642e-01	1.207025e+08	8.202662e+05	6.514388e+02	-2.674038e-05	1.700329e+00	
5.917491e-01	4.893517e-01	2.094913e+02	1.033357e+04	-1.838677e-01	1.207022e+08	8.202656e+05	6.514387e+02	-2.885906e-05	1.700357e+00	
6.374443e-01	5.099584e-01	2.094721e+02	1.033298e+04	-6.191302e-01	1.206910e+08	8.202495e+05	6.514368e+02	-9.232474e-05	1.701136e+00	
6.158914e-01	4.850265e-01	2.094573e+02	1.033254e+04	-9.353435e-01	1.206825e+08	8.202371e+05	6.514354e+02	-1.409442e-04	1.701736e+00	
6.360740e-01	4.915321e-01	2.094244e+02	1.033152e+04	-1.678379e+00	1.206634e+08	8.202094e+05	6.514321e+02	-2.494952e-04	1.703074e+00	
6.334663e-01	4.756297e-01	2.093427e+02	1.032899e+04	-3.508066e+00	1.206161e+08	8.201410e+05	6.514240e+02	-5.180627e-04	1.706397e+00	
3.433051e-01	6.570007e-01	2.095000e+02	1.033383e+04	-5.867870e-09	1.207072e+08	8.202730e+05	6.514396e+02	-1.090778e-12	1.700000e+00	
3.603212e-01	6.557290e-01	2.095000e+02	1.033383e+04	1.984522e-09	1.207072e+08	8.202730e+05	6.514396e+02	4.805268e-13	1.700000e+00	
3.482399e-01	6.386614e-01	2.095000e+02	1.033383e+04	4.113198e-09	1.207072e+08	8.202730e+05	6.514396e+02	9.373013e-13	1.700000e+00	
3.800593e-01	6.554284e-01	2.095000e+02	1.033383e+04	2.690160e-08	1.207072e+08	8.202730e+05	6.514396e+02	4.757763e-12	1.700000e+00	
3.457178e-01	6.178353e-01	2.095000e+02	1.033383e+04	2.373912e-08	1.207072e+08	8.202730e+05	6.514396e+02	4.308297e-12	1.700000e+00	
4.000295e-01	6.553226e-01	2.095000e+02	1.033383e+04	6.542394e-08	1.207072e+08	8.202730e+05	6.514396e+02	1.169891e-11	1.700000e+00	
3.455640e-01	5.987305e-01	2.095000e+02	1.033383e+04	5.535446e-08	1.207072e+08	8.202730e+05	6.514396e+02	9.776801e-12	1.700000e+00	
4.199842e-01	6.553471e-01	2.095000e+02	1.033383e+04	9.977611e-08	1.207072e+08	8.202730e+05	6.514396e+02	1.752735e-11	1.700000e+00	
3.459252e-01	5.796246e-01	2.095000e+02	1.033383e+04	8.153154e-08	1.207072e+08	8.202730e+05	6.514396e+02	1.561438e-11	1.700000e+00	
4.175576e-01	5.016373e-01	2.095000e+02	1.033383e+04	1.253053e-06	1.207072e+08	8.202730e+05	6.514396e+02	5.001242e-10	1.700000e+00	
4.398894e-01	6.553470e-01	2.095000e+02	1.033383e+04	9.101332e-08	1.207072e+08	8.202730e+05	6.514396e+02	9.623325e-12	1.700000e+00	
3.466865e-01	5.606449e-01	2.095000e+02	1.033383e+04	9.417430e-08	1.207072e+08	8.202730e+05	6.514396e+02	1.348033e-11	1.700000e+00	
3.941995e-01	5.061451e-01	2.095000e+02	1.033383e+04	-3.005628e-06	1.207072e+08	8.202730e+05	6.514396e+02	-4.129150e-10	1.700000e+00	
4.406486e-01	4.974808e-01	2.095000e+02	1.033383e+04	2.107259e-05	1.207072e+08	8.202730e+05	6.514396e+02	3.856858e-09	1.700000e+00	
4.597875e-01	6.553144e-01	2.095000e+02	1.033383e+04	-1.159149e-07	1.207072e+08	8.202730e+05	6.514396e+02	-2.908923e-11	1.700000e+00	
3.689134e-01	5.114848e-01	2.095000e+02	1.033383e+04	-1.543244e-06	1.207072e+08	8.202730e+05	6.514396e+02	-3.207617e-10	1.700000e+00	
3.479068e-01	5.418141e-01	2.095000e+02	1.033383e+04	-3.685354e-11	1.207072e+08	8.202730e+05	6.514396e+02	-9.393111e-12	1.700000e+00	
4.636717e-01	4.935496e-01	2.095000e+02	1.033383e+04	5.169018e-05	1.207072e+08	8.202730e+05	6.514396e+02	1.019529e-08	1.700000e+00	
4.797004e-01	6.552444e-01	2.095000e+02	1.033383e+04	-7.207552e-07	1.207072e+08	8.202730e+05	6.514396e+02	-1.271331e-10	1.700000e+00	
3.489112e-01	5.079539e-01	2.095000e+02	1.033383e+04	-7.215364e-07	1.207072e+08	8.202730e+05	6.514396e+02	-1.425812e-10	1.700000e+00	
3.492673e-01	5.232937e-01	2.095000e+02	1.033383e+04	-3.111280e-07	1.207072e+08	8.202730e+05	6.514396e+02	-6.954483e-11	1.700000e+00	
4.866149e-01	4.897971e-01	2.095000e+02	1.033383e+04	8.422798e-05	1.207072e+08	8.202730e+05	6.514396e+02	1.181251e-08	1.700000e+00	
4.996440e-01	6.551443e-01	2.095000e+02	1.033383e+04	-1.727712e-06	1.207072e+08	8.202730e+05	6.514396e+02	-2.989461e-10	1.700000e+00	
5.196247e-01	6.550347e-01	2.095000e+02	1.033383e+04	-2.757697e-06	1.207072e+08	8.202730e+05	6.514396e+02	-4.835744e-10	1.700000e+00	
5.094364e-01	4.861168e-01	2.095000e+02	1.033383e+04	-1.437455e-05	1.207072e+08	8.202730e+05	6.514396e+02	-6.545136e-09	1.700000e+00	
5.396389e-01	6.549395e-01	2.095000e+02	1.033383e+04	-3.115522e-06	1.207072e+08	8.202730e+05	6.514396e+02	-3.610364e-10	1.700000e+00	
5.320696e-01	4.823550e-01	2.094999e+02	1.033382e+04	-2.459875e-03	1.207071e+08	8.202729e+05	6.514396e+02	-4.137417e-07	1.700005e+00	
5.596701e-01	6.548821e-01	2.095000e+02	1.033383e+04	1.067083e-06	1.207072e+08	8.202730e+05	6.514396e+02	4.668984e-10	1.700000e+00	
5.544803e-01	4.783455e-01	2.094986e+02	1.033378e+04	-2.933622e-02	1.207064e+08	8.202718e+05	6.514395e+02	-4.773959e-06	1.700059e+00	
6.543513e-01	5.590695e-01	2.094972e+02	1.033374e+04	-6.190767e-02	1.207056e+08	8.202706e+05	6.514393e+02	-9.227501e-06	1.700113e+00	
6.544709e-01	5.788936e-01	2.094994e+02	1.033381e+04	-1.399555e-02	1.207068e+08	8.202725e+05	6.514396e+02	-2.087759e-06	1.700026e+00	
5.796819e-01	6.548676e-01	2.095000e+02	1.033383e+04	1.466782e-05	1.207072e+08	8.202730e+05	6.514396e+02	2.631692e-09	1.700000e+00	
6.548621e-01	6.562289e-01	2.095000e+02	1.033383e+04	1.051017e-04	1.207072e+08	8.202730e+05	6.514396e+02	1.521226e-08	1.700000e+00	
6.387054e-01	6.551198e-01	2.095000e+02	1.033383e+04	9.353121e-05	1.207072e+08	8.202730e+05	6.514396e+02	1.540051e-08	1.700000e+00	
6.507340e-01	6.384356e-01	2.095000e+02	1.033383e+04	7.455740e-05	1.207072e+08	8.202730e+05	6.514396e+02	7.988107e-09	1.700000e+00	
6.194283e-01	6.549328e-01	2.095000e+02	1.033383e+04	6.976149e-05	1.207072e+08	8.202730e+05	6.514396e+02	1.137207e-08	1.700000e+00	
6.537819e-01	6.177660e-01	2.095000e+02	1.033383e+04	-3.602752e-04	1.207072e+08	8.202730e+05	6.514396e+02	-5.435269e-08	1.700001e+00	
5.996400e-01	6.548575e-01	2.095000e+02	1.033383e+04	4.038108e-05	1.207072e+08	8.202730e+05	6.514396e+02	6.430996e-09	1.700000e+00	
6.543858e-01	5.984869e-01	2.094999e+02	1.033382e+04	-2.670181e-03	1.207071e+08	8.202729e+05	6.514396e+02	-3.969361e-07	1.700005e+00	
6.542238e-01	5.391311e-01	2.094893e+02	1.033350e+04	-2.382545e-01	1.207010e+08	8.202640e+05	6.514386e+02	-3.539206e-05	1.700435e+00	
5.767725e-01	4.738907e-01	2.094900e+02	1.033353e+04	-2.095286e-01	1.207014e+08	8.202646e+05	6.514386e+02	-3.298267e-05	1.700407e+00	
6.541265e-01	5.192008e-01	2.094639e+02	1.033272e+04	-8.081583e-01	1.206863e+08	8.202426e+05	6.514360e+02	-1.193209e-04	1.701467e+00	
5.992516e-01	4.687721e-01	2.094510e+02	1.033235e+04	-1.068690e+00	1.206788e+08	8.202317e+05	6.514347e+02	-1.619461e-04	1.701996e+00	
6.537088e-01	4.990413e-01	2.093923e+02	1.033050e+04	-2.425965e+00	1.206448e+08	8.201824e+05	6.514289e+02	-3.554336e-04	1.704377e+00	
6.214889e-01	4.625010e-01	2.093121e+02	1.032803e+04	-4.194100e+00	1.205984e+08	8.201154e+05	6.514209e+02	-6.184922e-04	1.707642e+00	
6.523791e-01	4.776086e-01	2.092061e+02	1.032464e+04	-6.653905e+00	1.205370e+08	8.200271e+05	6.514104e+02	-9.646353e-04	1.711949e+00	
6.410212e-01	4.616625e-01	2.090792e+02	1.032056e+04	-9.568250e+00	1.204635e+08	8.199220e+05	6.513978e+02	-1.377118e-03	1.717120e+00	
6.548478e-01	4.618493e-01	2.088233e+02	1.031225e+04	-1.545660e+01	1.203152e+08	8.197119e+05	6.513724e+02	-2.201708e-03	1.727583e+00	
6.557880e-01	4.484044e-01	2.081914e+02	1.029125e+04	-3.014252e+01	1.199492e+08	8.192035e+05	6.513096e+02	-4.196359e-03	1.753635e+00	
3.290060e-01	6.698912e-01	2.095000e+02	1.033383e+04	-5.939506e-09	1.207072e+08	8.202730e+05	6.514396e+02	-1.046927e-12	1.700000e+00	
3.504137e-01	6.722338e-01	2.095000e+02	1.033383e+04	-6.932458e-09	1.207072e+08	8.202730e+05	6.514396e+02	-1.264352e-12	1.700000e+00	
3.286625e-01	6.484646e-01	2.095000e+02	1.033383e+04	-6.856336e-09	1.207072e+08	8.202730e+05	6.514396e+02	-1.246081e-12	1.700000e+00	
3.701520e-01	6.724364e-01	2.095000e+02	1.033383e+04	-1.212693e-09	1.207072e+08	8.202730e+05	6.514396e+02	-1.333782e-13	1.700000e+00	
3.288967e-01	6.284996e-01	2.095000e+02	1.033383e+04	-2.470504e-09	1.207072e+08	8.202730e+05	6.514396e+02	-4.165783e-13	1.700000e+00	
3.900586e-01	6.724145e-01	2.095000e+02	1.033383e+04	1.892127e-08	1.207072e+08	8.202730e+05	6.514396e+02	3.402056e-12	1.700000e+00	
3.284412e-01	6.086828e-01	2.095000e+02	1.033383e+04	1.090191e-08	1.207072e+08	8.202730e+05	6.514396e+02	2.050004e-12	1.700000e+00	
4.100190e-01	6.723906e-01	2.095000e+02	1.033383e+04	5.663576e-08	1.207072e+08	8.202730e+05	6.514396e+02	9.674484e-12	1.700000e+00	
3.284679e-01	5.892326e-01	2.095000e+02	1.033383e+04	3.672278e-08	1.207072e+08	8.202730e+05	6.514396e+02	6.484371e-12	1.700000e+00	
4.299693e-01	6.723778e-01	2.095000e+02	1.033383e+04	9.405312e-08	1.207072e+08	8.202730e+05	6.514396e+02	1.677276e-11	1.700000e+00	
3.289041e-01	5.699384e-01	2.095000e+02	1.033383e+04	6.718954e-08	1.207072e+08	8.202730e+05	6.514396e+02	1.250831e-11	1.700000e+00	
4.028875e-01	4.872496e-01	2.095000e+02	1.033383e+04	5.563417e-07	1.207072e+08	8.202730e+05	6.514396e+02	3.690153e-10	1.700000e+00	
4.261548e-01	4.832044e-01	2.095000e+02	1.033383e+04	1.902026e-05	1.207072e+08	8.202730e+05	6.514396e+02	3.512795e-09	1.700000e+00	
4.499028e-01	6.723531e-01	2.095000e+02	1.033383e+04	1.095735e-07	1.207072e+08	8.202730e+05	6.514396e+02	1.466794e-11	1.700000e+00	
3.795060e-01	4.912756e-01	2.095000e+02	1.033383e+04	-2.940836e-06	1.207072e+08	8.202730e+05	6.514396e+02	-4.226863e-10	1.700000e+00	
3.297701e-01	5.508294e-01	2.095000e+02	1.033383e+04	9.043270e-08	1.207072e+08	8.202730e+05	6.514396e+02	1.597797e-11	1.700000e+00	
4.493178e-01	4.792713e-01	2.095000e+02	1.033383e+04	5.051833e-05	1.207072e+08	8.202730e+05	6.514396e+02	9.614763e-09	1.700000e+00	
4.698336e-01	6.723108e-01	2.095000e+02	1.033383e+04	-1.620998e-08	1.207072e+08	8.202730e+05	6.514396e+02	-1.150158e-11	1.700000e+00	
3.572476e-01	4.940447e-01	2.095000e+02	1.033383e+04	-1.675257e-06	1.207072e+08	8.202730e+05	6.514396e+02	-3.332152e-10	1.700000e+00	
3.310990e-01	5.320687e-01	2.095000e+02	1.033383e+04	7.326426e-08	1.207072e+08	8.202730e+05	6.514396e+02	6.139049e-12	1.700000e+00	
4.723577e-01	4.754281e-01	2.095000e+02	1.033383e+04	8.228340e-05	1.207072e+08	8.202730e+05	6.514396e+02	1.197433e-08	1.700000e+00	
4.897747e-01	6.722519e-01	2.095000e+02	1.033383e+04	-4.792831e-07	1.207072e+08	8.202730e+05	6.514396e+02	-9.128547e-11	1.700000e+00	
3.329694e-01	5.142291e-01	2.095000e+02	1.033383e+04	-1.006288e-07	1.207072e+08	8.202730e+05	6.514396e+02	-2.758187e-11	1.700000e+00	
3.371299e-01	4.973768e-01	2.095000e+02	1.033383e+04	-6.391376e-07	1.207072e+08	8.202730e+05	6.514396e+02	-1.200038e-10	1.700000e+00	
5.097344e-01	6.721842e-01	2.095000e+02	1.033383e+04	-1.426108e-06	1.207072e+08	8.202730e+05	6.514396e+02	-2.450705e-10	1.700000e+00	
4.952173e-01	4.716125e-01	2.095000e+02	1.033383e+04	-6.151002e-06	1.207072e+08	8.202730e+05	6.514396e+02	-5.334012e-09	1.700000e+00	
5.297150e-01	6.721193e-01	2.095000e+02	1.033383e+04	-2.463678e-06	1.207072e+08	8.202730e+05	6.514396e+02	-4.438332e-10	1.700000e+00	
5.178177e-01	4.677361e-01	2.094999e+02	1.033382e+04	-2.616497e-03	1.207071e+08	8.202729e+05	6.514396e+02	-4.356868e-07	1.700005e+00	
5.497110e-01	6.720676e-01	2.095000e+02	1.033383e+04	-3.263651e-06	1.207072e+08	8.202730e+05	6.514396e+02	-4.417466e-10	1.700000e+00	
5.400645e-01	4.636875e-01	2.094984e+02	1.033378e+04	-3.245232e-02	1.207063e+08	8.202717e+05	6.514395e+02	-5.194366e-06	1.700064e+00	
6.715350e-01	5.690953e-01	2.094962e+02	1.033371e+04	-8.386208e-02	1.207050e+08	8.202698e+05	6.514392e+02	-1.247269e-05	1.700153e+00	
5.697063e-01	6.720290e-01	2.095000e+02	1.033383e+04	-1.173031e-06	1.207072e+08	8.202730e+05	6.514396e+02	5.333664e-11	1.700000e+00	
6.670636e-01	6.679117e-01	2.095000e+02	1.033383e+04	1.105000e-04	1.207072e+08	8.202730e+05	6.514396e+02	1.528974e-08	1.700000e+00	
6.482417e-01	6.710445e-01	2.095000e+02	1.033383e+04	8.482095e-05	1.207072e+08	8.202730e+05	6.514396e+02	1.415313e-08	1.700000e+00	
6.693860e-01	6.485367e-01	2.095000e+02	1.033383e+04	3.661676e-05	1.207072e+08	8.202730e+05	6.514396e+02	2.445845e-09	1.700000e+00	
6.291908e-01	6.716983e-01	2.095000e+02	1.033383e+04	5.886810e-05	1.207072e+08	8.202730e+05	6.514396e+02	9.209955e-09	1.700000e+00	
6.700867e-01	6.287124e-01	2.095000e+02	1.033383e+04	-5.083229e-04	1.207072e+08	8.202730e+05	6.514396e+02	-7.713723e-08	1.700001e+00	
6.095481e-01	6.719029e-01	2.095000e+02	1.033383e+04	2.910317e-05	1.207072e+08	8.202730e+05	6.514396e+02	4.709356e-09	1.700000e+00	
6.710873e-01	6.087305e-01	2.094998e+02	1.033382e+04	-3.788737e-03	1.207071e+08	8.202729e+05	6.514396e+02	-5.655988e-07	1.700007e+00	
5.896720e-01	6.719843e-01	2.095000e+02	1.033383e+04	8.311706e-06	1.207072e+08	8.202730e+05	6.514396e+02	1.629028e-09	1.700000e+00	
6.714901e-01	5.889410e-01	2.094991e+02	1.033380e+04	-1.964808e-02	1.207067e+08	8.202723e+05	6.514395e+02	-2.930407e-06	1.700036e+00	
6.713755e-01	5.491649e-01	2.094862e+02	1.033340e+04	-3.078810e-01	1.206992e+08	8.202614e+05	6.514382e+02	-4.554666e-05	1.700560e+00	
5.619224e-01	4.592556e-01	2.094891e+02	1.033351e+04	-2.298525e-01	1.207009e+08	8.202638e+05	6.514385e+02	-3.597502e-05	1.700444e+00	
6.711127e-01	5.291510e-01	2.094557e+02	1.033246e+04	-9.963921e-01	1.206816e+08	8.202357e+05	6.514352e+02	-1.462420e-04	1.701797e+00	
5.835625e-01	4.540757e-01	2.094464e+02	1.033221e+04	-1.165493e+00	1.206761e+08	8.202278e+05	6.514343e+02	-1.771665e-04	1.702184e+00	