 TITLE = "Adapted Mesh"
 VARIABLES = "X", "Y"
 ZONE T = "Domain", N=       20723 E=       41200 
 DATAPACKING=POINT, ZONETYPE=FEQUADRILATERAL
  8.757529502322940E-003  0.208735668184424     
  0.990346675349625       1.295952490929437E-002
  0.991241604639265       0.991264470483859     
  8.734767139271567E-003  0.991240842239920     
  0.451119422988116       0.577304773083433     
  0.467660101686024       0.575025425613258     
  0.487347623666052       0.573090152777196     
  0.508104590993733       0.571815363954186     
  0.529077129737449       0.571537265800309     
  0.546631780943346       0.573349469815856     
  0.563453445288576       0.567312224988764     
  0.419405512065034       0.587361939253878     
  0.408002042413342       0.579847730675741     
  0.433644781971769       0.570501358313993     
  0.415115875671833       0.572621549663314     
  0.440493559362592       0.589193422737600     
  0.459420014285685       0.590202945599430     
  0.454674581048051       0.562440527547240     
  0.475108892106037       0.558520602971603     
  0.478487936871364       0.589454036786673     
  0.496372970932194       0.556022042547127     
  0.498416929688035       0.588553438762459     
  0.518678365519974       0.587969847311667     
  0.518661511220514       0.554520998594035     
  0.538462990944749       0.587733508510722     
  0.543731453667203       0.554550932420196     
  0.558176977985238       0.586235265307398     
  0.583313527249950       0.559886440697954     
  0.567053323404212       0.547464969921313     
  0.581485699475556       0.582886355553347     
  0.584885341443392       0.542493225005274     
  0.393695123349284       0.606896813634215     
  0.410353879630914       0.605297838256975     
  0.398671846206865       0.589710765172653     
  0.429941585879575       0.605033250294060     
  0.399302917367224       0.570399813949410     
  0.449719252131830       0.605479857321536     
  0.439389565289253       0.549641627232135     
  0.415724836473266       0.555769761548962     
  0.396228352813416       0.554001388198630     
  0.461434377231652       0.544548274183905     
  0.469234638662908       0.605512992808928     
  0.483322618182268       0.540901682672122     
  0.488943397327698       0.605099958704350     
  0.508929320592499       0.604630217060246     
  0.505674983490490       0.538145921436482     
  0.528972774195456       0.604234306881482     
  0.528816939743842       0.535828909901973     
  0.549062660090354       0.603676393158026     
  0.552091479515030       0.532472864335556     
  0.601567290594509       0.570019591118723     
  0.569736903013213       0.602937435201975     
  0.574389111293896       0.528535907213112     
  0.601045343629839       0.549478420522582     
  0.603659265624853       0.590138238659468     
  0.590230415769292       0.603979260314208     
  0.598125561686320       0.527415325030270     
  0.607055214868029       0.606525028275668     
  0.379565488065429       0.619477900066132     
  0.400602068304243       0.621586947658291     
  0.379592844918475       0.598809464016784     
  0.420095584124812       0.621681982269939     
  0.380778872136806       0.579928219669905     
  0.439817767871523       0.621741647196455     
  0.424343965904177       0.535064745939012     
  0.381161693140632       0.561635098228050     
  0.402608985394627       0.538992181950869     
  0.446943201888531       0.530415953389635     
  0.459573435380389       0.621797755862054     
  0.383014445133355       0.544005065955154     
  0.469425756625081       0.526270372363612     
  0.479353187110931       0.621667519831449     
  0.491970748168099       0.522765041552625     
  0.499250569052522       0.621401539825303     
  0.519254815067011       0.621110748202242     
  0.514739308933730       0.519614668930678     
  0.539332636391066       0.620813968214102     
  0.537640998337943       0.516317911359991     
  0.559538958973797       0.620542739661971     
  0.560409238971974       0.512629247158020     
  0.579750142440066       0.620618609446548     
  0.620211863161160       0.579031009843349     
  0.619377019497140       0.558845947103171     
  0.618578736198464       0.538374912910405     
  0.583196047478584       0.509064494860163     
  0.621190216799685       0.598487026690136     
  0.599520618446959       0.620935167024940     
  0.620516046937676       0.619125437869844     
  0.619364610863251       0.518601885385147     
  0.604893811303806       0.505510280525695     
  0.622481073938367       0.502072840715431     
  0.369856937488984       0.638634247538934     
  0.361098811788454       0.624504828055857     
  0.390012374875787       0.638108226123451     
  0.362348300126274       0.608050645733020     
  0.410092397774206       0.638375161370116     
  0.362887299093723       0.589189393183321     
  0.429929608139526       0.638442674451076     
  0.363589799432585       0.570378909277675     
  0.409632289403603       0.520423910903478     
  0.432304722076454       0.516004362037557     
  0.449763784306058       0.638453324272404     
  0.364722384739595       0.551782289666529     
  0.387389481058210       0.525520975024332     
  0.455114253209037       0.511819694209659     
  0.469615589865891       0.638401204058441     
  0.366729319026079       0.532864215509412     
  0.477894979164802       0.507978975365090     
  0.489511649605178       0.638269563023988     
  0.509472622583383       0.638093807316080     
  0.500641787892877       0.504400131819506     
  0.529493872039877       0.637914534565209     
  0.523327639319287       0.500826956631362     
  0.549569310715932       0.637766160897505     
  0.545916272428899       0.496974910727236     
  0.569663343715741       0.637717184245727     
  0.637490855182639       0.568318080108863     
  0.568583495556205       0.492681456966024     
  0.637045705966440       0.547840729446859     
  0.637753974905867       0.588352674271248     
  0.589684965461234       0.637764762433943     
  0.629638801465461       0.638260729450486     
  0.638535805208796       0.624258182115086     
  0.609757634980006       0.637649512837943     
  0.637772422612326       0.607708251588544     
  0.636103451269768       0.528066181924435     
  0.592149314489241       0.487740513977358     
  0.635559805570728       0.510188064297649     
  0.613510949513861       0.488212586564643     
  0.638863509265893       0.491730909767540     
  0.631991987518737       0.475447473682708     
  0.343305112421201       0.657000677235774     
  0.360321174227229       0.655728992534374     
  0.348239930960973       0.638661377372800     
  0.380059318965049       0.655428361985262     
  0.345717775220265       0.617835345781112     
  0.400029505148222       0.655322622972441     
  0.345563988556203       0.598730536100982     
  0.419984221729935       0.655347064218522     
  0.345925204137149       0.579624578642257     
  0.417569182129909       0.501622150075252     
  0.439889377355864       0.655347017295662     
  0.346686483935454       0.560644898049858     
  0.394205715667175       0.506137951162385     
  0.440659744459045       0.497453907485159     
  0.459787483991473       0.655314375795712     
  0.368915554836343       0.511482258872870     
  0.347906955666270       0.541813943241779     
  0.463652627196742       0.493507993292814     
  0.479700405036164       0.655244422686277     
  0.348911931718202       0.507952882082118     
  0.349267759112854       0.523293240119734     
  0.486490630953992       0.489731919057722     
  0.499644019630540       0.655144212790523     
  0.519624763307761       0.655034581512544     
  0.509086275341543       0.485982154254569     
  0.539639008280126       0.654939016986596     
  0.531386652220965       0.482017438678877     
  0.559670401944876       0.654880986297883     
  0.553483366027666       0.477546558284359     
  0.655273995681444       0.557482745257883     
  0.655051389520362       0.578209000440568     
  0.579682959543103       0.654865098863344     
  0.654857833421434       0.656211140191364     
  0.638708266562212       0.655107258121755     
  0.650743706352424       0.638399608802157     
  0.619432329919143       0.654924443626633     
  0.653852214204425       0.617672048810616     
  0.599642539978049       0.654852435972073     
  0.654628306768443       0.598230058733788     
  0.655142887929864       0.535800340377731     
  0.575687281508484       0.472138650793592     
  0.650566236907872       0.517457841287760     
  0.593973746307316       0.469264951505793     
  0.653606748444034       0.499360964676268     
  0.620113246578464       0.464235956709682     
  0.653192163416131       0.477890543813888     
  0.641798515386500       0.458460987580242     
  0.659353833803827       0.460672915020044     
  0.655904383873019       0.448234478321421     
  0.329005983765523       0.669891217701759     
  0.350413720807671       0.672233818738111     
  0.328662549633797       0.648464604235672     
  0.370152020531416       0.672436362259407     
  0.328896707171764       0.628499632900350     
  0.390058598756166       0.672414450761098     
  0.328441199910317       0.608682755625819     
  0.410019010854203       0.672390610204360     
  0.328467857200994       0.589232612730068     
  0.429969276643831       0.672377751529280     
  0.328904152388606       0.569938428685012     
  0.402909977358894       0.487225874485713     
  0.426198851989226       0.483159651316792     
  0.449902781403079       0.672353055860782     
  0.379514720261621       0.491265331688516     
  0.329770162117984       0.550829396534262     
  0.449374769141052       0.479204226268020     
  0.469833621450615       0.672310784516819     
  0.357250318038273       0.494040984149732     
  0.331099093438743       0.532068630333132     
  0.472364762901544       0.475352235135720     
  0.489774665374079       0.672251901501375     
  0.332969653117477       0.514228773739774     
  0.337130566162222       0.497375590181643     
  0.509734380850534       0.672184148884725     
  0.495006762679043       0.471545634453132     
  0.529715030876330       0.672119244755089     
  0.517131278546994       0.467609694284959     
  0.549711086548704       0.672067319289445     
  0.538712694951353       0.463238679718321     
  0.672995517305868       0.568035702093667     
  0.569706500700528       0.672028481373507     
  0.667052682329458       0.667885327348141     
  0.648239631735601       0.671035246165701     
  0.669362006689644       0.648495324684717     
  0.629191479610239       0.671694008063171     
  0.670070209570185       0.628654114350821     
  0.609549065219194       0.671900568704426     
  0.671182431256445       0.608626790139675     
  0.589672654151671       0.671983032240273     
  0.671985973116395       0.588640680764319     
  0.673699520511684       0.546468175216889     
  0.559964369563685       0.458117913224583     
  0.670770086528592       0.530207854298789     
  0.586620427660361       0.453516900718332     
  0.670501464895170       0.510069877135542     
  0.605251398922411       0.450566636062736     
  0.672096718768418       0.489271537880775     
  0.625428592123431       0.444619698993831     
  0.672787146876780       0.469595031023218     
  0.643987620210020       0.438485182461178     
  0.672249464532350       0.448521099211917     
  0.662862159166234       0.434222831259313     
  0.681004714675140       0.429878585253818     
  0.319335532838932       0.689389514421255     
  0.310353103137425       0.674996408929057     
  0.339726073418718       0.688967006856618     
  0.311349434321651       0.658129349657328     
  0.360037812761315       0.689353837720758     
  0.311339510392705       0.638572292470778     
  0.380059501699006       0.689473612355428     
  0.311212472376792       0.618803521830164     
  0.400046490210858       0.689491462210909     
  0.311119983879841       0.599101903321061     
  0.420020786034405       0.689483506410348     
  0.311310548868827       0.579535941424343     
  0.411855968111129       0.468918680883176     
  0.439979127149973       0.689466194830344     
  0.388653318956765       0.472813369268650     
  0.311871862392549       0.560104340840595     
  0.435124550006573       0.464997287513059     
  0.459926393098181       0.689439445535221     
  0.365897847907177       0.476511346003960     
  0.312914621894525       0.540860625587625     
  0.458286911336818       0.461102477765432     
  0.479871788856928       0.689403330131826     
  0.314663381325236       0.521925621554813     
  0.344039816261290       0.480288647450082     
  0.499823520895281       0.689360353102093     
  0.481142028419979       0.457254922647038     
  0.317734094687460       0.503344087569091     
  0.322882222541860       0.484993880654365     
  0.519786743987281       0.689315173514627     
  0.503345605125765       0.453468305928021     
  0.539762439581219       0.689271719816247     
  0.524618646502585       0.449412800298579     
  0.559746245317346       0.689227878464391     
  0.683661341128676       0.684245696795792     
  0.659968232754913       0.686924003613884     
  0.686041579227894       0.660278545349876     
  0.639513439427633       0.688273472730863     
  0.687186884273078       0.639398874310903     
  0.619601554113804       0.688822674857985     
  0.687868380174890       0.619171159837680     
  0.599686325535890       0.689058800403028     
  0.688480758567344       0.599219444940837     
  0.579727236118001       0.689168563208938     
  0.689393468104391       0.579338072663185     
  0.692397111259109       0.557876038144135     
  0.545062875218910       0.444580782639992     
  0.688467910378413       0.541400951188732     
  0.571743985509111       0.438608613775831     
  0.688960661589983       0.520465319853907     
  0.591077015414984       0.436463933938087     
  0.689418714850158       0.499487446944186     
  0.610784848062471       0.431058508667423     
  0.689527122784044       0.479687389782896     
  0.630049444734231       0.425427025792685     
  0.690245858218178       0.460143964478629     
  0.648639989619295       0.422224802126853     
  0.689807785790885       0.444677337218748     
  0.669488851308481       0.414760828515146     
  0.686071820940510       0.415705545576254     
  0.292630583496549       0.707845025301125     
  0.309795402168011       0.706643696822383     
  0.297485103674827       0.689323395082929     
  0.329724067744656       0.706444407615554     
  0.294708162530483       0.668165227387460     
  0.349883700653087       0.706443367453050     
  0.294178136489465       0.648614553955553     
  0.370006348638980       0.706553293713120     
  0.293937267368715       0.628881711616794     
  0.390047700039163       0.706608368387666     
  0.293808910655481       0.609100061519677     
  0.410049674244870       0.706622896395521     
  0.293845901308974       0.589356804019763     
  0.430027748767659       0.706618705910793     
  0.397661071660606       0.454778675329276     
  0.294150011663328       0.569682801272878     
  0.449989445822815       0.706604677611320     
  0.420912071883836       0.450874062108101     
  0.374637651465256       0.458637090300082     
  0.294830781762873       0.550085364443455     
  0.469942306202855       0.706583360587258     
  0.444196139297521       0.446923703576642     
  0.296057741202838       0.530551571904703     
  0.352057936083437       0.462556150925260     
  0.489893709970510       0.706556084073985     
  0.467343464861016       0.442959041377534     
  0.298142795203494       0.510973841634294     
  0.329949018733114       0.466810779659108     
  0.490093444661884       0.439092629196962     
  0.509849650189809       0.706524471680334     
  0.301632556678100       0.491084615948833     
  0.307825007926446       0.471586701146334     
  0.529814120306118       0.706489630874895     
  0.511505123014582       0.435829630822080     
  0.549788795774703       0.706449285500556     
  0.708299980264310       0.709183179706332     
  0.705581170543794       0.692226923384839     
  0.691575215330081       0.706172656286049     
  0.671063252660970       0.704739869447582     
  0.704184981833116       0.671396425127778     
  0.650145438163330       0.705264680884509     
  0.704577767642747       0.650111137844151     
  0.629837528037060       0.705802310538724     
  0.704940392793544       0.629514076293058     
  0.609771387672158       0.706124551841492     
  0.705088059336497       0.609430898265841     
  0.589765246800946       0.706299082542962     
  0.705139588274717       0.589926337207818     
  0.569773011822225       0.706393382165485     
  0.705179698719917       0.572156740735190     
  0.531347599265547       0.431624675251644     
  0.704988250217716       0.550345507419576     
  0.555364147825812       0.426985132566593     
  0.706442436842900       0.529873233838561     
  0.576442793002099       0.422107032395248     
  0.706672574108574       0.509541784480250     
  0.596433025896656       0.417329380123005     
  0.707160737114699       0.489737404878148     
  0.615492293372646       0.411696892172838     
  0.706884613088116       0.469298933386947     
  0.632652555990746       0.407602698264615     
  0.703636967324493       0.450359110654097     
  0.654263345625290       0.398381341915040     
  0.704267473707259       0.429311927483481     
  0.709682518770143       0.385909258627377     
  0.690970596830357       0.392934649136620     
  0.706583040283437       0.406724877984665     
  0.671052172894913       0.398630930262960     
  0.278278363256395       0.720774012163746     
  0.299875829468263       0.723241851532724     
  0.277807303854270       0.699160264391172     
  0.319780378546417       0.723546425612727     
  0.277876624051140       0.678976971543029     
  0.339848742610577       0.723623938117618     
  0.277153491456482       0.658861535925037     
  0.359956116467501       0.723689203316656     
  0.276758614551000       0.639003641178676     
  0.380029675988057       0.723747736418461     
  0.276546229943906       0.619158160891980     
  0.400058761318631       0.723779760685290     
  0.276478351720469       0.599316847311921     
  0.420055502735187       0.723790979241162     
  0.276593185970818       0.579496363950641     
  0.440030494645751       0.723789647605672     
  0.406704642832302       0.436859349279958     
  0.383522597113902       0.440797478806026     
  0.276964858322877       0.559696026816620     
  0.459992080011465       0.723780185889617     
  0.430014571114723       0.432829226613758     
  0.360587576357077       0.444735061986700     
  0.277695692122131       0.539880663118104     
  0.479947367367734       0.723764381924056     
  0.453349891508616       0.428696748065244     
  0.338003810835295       0.448814348472487     
  0.278921948065745       0.519925241674159     
  0.476632831845937       0.424514232490631     
  0.499902334386639       0.723743044715752     
  0.280794118599325       0.499417933572486     
  0.315814992919785       0.453117221505443     
  0.283433387742335       0.476641880214141     
  0.294248708313218       0.457339923086026     
  0.519861844101754       0.723716331332892     
  0.500069495082796       0.420347752159267     
  0.276387585999679       0.459515238882014     
  0.539829837787262       0.723682577909730     
  0.721081200847564       0.722648144307818     
  0.722992203486108       0.701232765861570     
  0.700164000970737       0.723598448014829     
  0.722633803281335       0.681058196008224     
  0.680565705115047       0.722985385659062     
  0.660356698230172       0.722771462659497     
  0.722420901339256       0.660328540847991     
  0.640053422346868       0.722992754278424     
  0.722437704406200       0.639565996232272     
  0.619891226056566       0.723255233270546     
  0.722193056804442       0.619189342121568     
  0.599825250729610       0.723444907626943     
  0.721633722769320       0.599343855896142     
  0.579805452922738       0.723563657678731     
  0.720852374307159       0.579865348463471     
  0.518972441987294       0.420889587865596     
  0.559809717347568       0.723635928059580     
  0.724658848144759       0.558335526527754     
  0.542099607046602       0.415540353962316     
  0.723858535728258       0.539947834000186     
  0.562570011982194       0.408551276429055     
  0.723884947794355       0.519576576633180     
  0.582211396943106       0.403534354986853     
  0.724024625411388       0.499647204382626     
  0.601399087266471       0.398083910157821     
  0.725813204318239       0.479788471245135     
  0.619564613230456       0.392905719556339     
  0.724713980723733       0.457166437704618     
  0.641578209610025       0.387862864720880     
  0.722155827295815       0.440343746109237     
  0.728118821671651       0.362216561760564     
  0.713139455546036       0.366985771070485     
  0.726814462115678       0.378448326971783     
  0.695458200862857       0.372698705819158     
  0.725046059797493       0.397926674978718     
  0.676926451638429       0.378219460415265     
  0.723351033869456       0.418864541751913     
  0.658789652573236       0.382655180184638     
  0.268629690464587       0.740378489065446     
  0.259504404103900       0.725833588214127     
  0.289174429882249       0.740044918845267     
  0.260418080603039       0.708838816240470     
  0.309640964657091       0.740529974934110     
  0.260281820051358       0.689115471524723     
  0.329806365184436       0.740742523917524     
  0.259971837987882       0.669143908446278     
  0.349923203654431       0.740844965613387     
  0.259593092118982       0.649179020744648     
  0.370008457533167       0.740909475042656     
  0.259329732547671       0.629261491234169     
  0.390055510500369       0.740951754248154     
  0.259187659936588       0.609355857845730     
  0.410068083752562       0.740975561880373     
  0.259176186584983       0.589454790534270     
  0.430055282786566       0.740985904285660     
  0.392468226431054       0.422970716064970     
  0.259330932589356       0.569552841946597     
  0.450025891314848       0.740986828400098     
  0.415704396866320       0.418863376241414     
  0.369366923268750       0.426953479608400     
  0.259706409877184       0.549626789837582     
  0.469987157706773       0.740980472147929     
  0.439061694316455       0.414535909552957     
  0.346470983875144       0.430957935847396     
  0.260358969659915       0.529615659926675     
  0.462500520964447       0.410085319178329     
  0.489944901101057       0.740967664575916     
  0.261293260362172       0.509394360852362     
  0.323897284989739       0.435113314704127     
  0.262266642103875       0.488830415458528     
  0.301882564708381       0.439479935177476     
  0.509903897984466       0.740948464863764     
  0.485938377827627       0.405560425783239     
  0.261871695914380       0.469109774065857     
  0.281145563111926       0.444125975741856     
  0.529868389666335       0.740921911910318     
  0.262246760956037       0.450748615917099     
  0.740508705060286       0.731832892198326     
  0.726122424598647       0.741010306285862     
  0.740021135328045       0.711405968428083     
  0.709385639654874       0.740248574986665     
  0.740237412297880       0.690824488408132     
  0.689993704671141       0.740314540423326     
  0.670164894384553       0.740259089134898     
  0.740250887007526       0.670226547259297     
  0.650089375583741       0.740317567554931     
  0.740244003975056       0.649418997711586     
  0.629966654798757       0.740473146623365     
  0.739984301556750       0.628574155465580     
  0.609882554921936       0.740630151415780     
  0.738779988627334       0.608419656242677     
  0.589841528795971       0.740749684681569     
  0.737511892718638       0.588956483593444     
  0.569831487412940       0.740830990779930     
  0.742715980327129       0.568135499100708     
  0.526005881652212       0.400897641417221     
  0.503786910313837       0.404958466282948     
  0.549842625328877       0.740884938402360     
  0.741220864196982       0.549725932294098     
  0.548230016031920       0.394741654286980     
  0.741083060199947       0.529622630179874     
  0.568051580493853       0.389703544151293     
  0.741131428276160       0.509479484152467     
  0.590087176757567       0.385383235729690     
  0.742541788466000       0.489420117597679     
  0.605573422204533       0.380978536433197     
  0.742907578242247       0.467499883478680     
  0.627672248568764       0.375120596472130     
  0.739825858241111       0.451719446901002     
  0.739554430963195       0.347513165590561     
  0.718521291440200       0.349225366687897     
  0.742500754095575       0.369084339654276     
  0.700173137809000       0.353638280029996     
  0.742317772926843       0.388780360333685     
  0.681800812876785       0.358759754415412     
  0.741420871020922       0.409094485735166     
  0.663444880337038       0.363901965988095     
  0.740500843133911       0.430088795061970     
  0.645396167585260       0.369203633907422     
  0.241815018513451       0.758889235034163     
  0.246610021310663       0.740222604287103     
  0.259105819988362       0.757731662745144     
  0.279177675210712       0.757603655680400     
  0.243706250636633       0.718883978912820     
  0.299475364073256       0.757682318173447     
  0.243071046948234       0.699185651648619     
  0.319727184558627       0.757873051924933     
  0.242701564257909       0.679300858956218     
  0.339884531414889       0.758003545852329     
  0.242385601752185       0.659344730858081     
  0.359986358017619       0.758084725930049     
  0.242124125797123       0.639385369595280     
  0.380046081347233       0.758137081492143     
  0.241946060855506       0.619435550631941     
  0.400070683045438       0.758170612479229     
  0.241860284048573       0.599488899420684     
  0.420068342541581       0.758190520713629     
  0.241881542583894       0.579538336488513     
  0.440047551833036       0.758200284944361     
  0.401295999156732       0.405061852195231     
  0.378213701132853       0.409185010578727     
  0.242035881472967       0.559570668065701     
  0.460015578109951       0.758201983367233     
  0.424469750528967       0.400607618303875     
  0.355187066747180       0.413178227209977     
  0.242350301668126       0.539560784877619     
  0.447949966910843       0.395668499211771     
  0.479978099342847       0.758196561100538     
  0.332291719714518       0.417215894597953     
  0.242823645979151       0.519476344859823     
  0.309655596525537       0.421453671596136     
  0.243364317984235       0.499328731089929     
  0.471553986788958       0.391037272074935     
  0.499939544312076       0.758184229192295     
  0.243719314128270       0.479374621937621     
  0.287429390755115       0.426125546121163     
  0.519903706888640       0.758164570647826     
  0.265651483114116       0.431932583591527     
  0.244119087779810       0.459873579511355     
  0.758943177399596       0.758352610364052     
  0.757784582815616       0.741135412884214     
  0.740377501304260       0.753667307500048     
  0.757614723909192       0.721119397534159     
  0.719205926214536       0.756627707113849     
  0.757633333135417       0.700753961384824     
  0.699689598040019       0.757252907512673     
  0.679940589909037       0.757490466480356     
  0.757822608399060       0.680187102024935     
  0.660005674150400       0.757612824146891     
  0.758040320932254       0.659366045970481     
  0.639970303749722       0.757730971887668     
  0.758149761520580       0.638178270879378     
  0.619912855187277       0.757852673717511     
  0.757835272767282       0.616330159423746     
  0.599871051157321       0.757958108079569     
  0.753241875871780       0.597772218116989     
  0.579852997648097       0.758038442546415     
  0.758098007788756       0.580640065706381     
  0.513716351909145       0.384960521997386     
  0.559855829842750       0.758095830859980     
  0.758095627449058       0.559807659931172     
  0.534042993306796       0.380889868944601     
  0.488795504358990       0.390831469349366     
  0.539874379086220       0.758136151993988     
  0.758274223500451       0.539672771823328     
  0.554281656566413       0.375624688371609     
  0.758441671767700       0.519528402624947     
  0.574916990833881       0.369504986534443     
  0.758143783118894       0.501344725282759     
  0.596212302249502       0.366507850319982     
  0.760420450938335       0.478334739359155     
  0.612517280071848       0.362525168957394     
  0.757537377008689       0.462423626420401     
  0.762585405928385       0.318603523562443     
  0.744208290731264       0.325033489402803     
  0.759833529324947       0.338096347993373     
  0.724689693646515       0.330403501005546     
  0.758968917708348       0.358652958317446     
  0.705398326161745       0.334775060478284     
  0.759171486260451       0.379038256718288     
  0.686668610686609       0.339609146660938     
  0.758874758185290       0.399284791318455     
  0.668091131047253       0.344742663751716     
  0.758350809521108       0.419871082892211     
  0.649611770907936       0.350103875833211     
  0.757865137348147       0.440921603872544     
  0.631173231062422       0.355884892487765     
  0.245268614189146       0.440275475721811     
  0.227415876938584       0.771931741327579     
  0.226823032291007       0.750077939723159     
  0.249205241367062       0.774451401673495     