 TITLE = "Edge Error"
 VARIABLES = "X", "Y","Estimate1" 
 ZONE T = "Domain", I=       34799  DATAPACKING=POINT, ZONETYPE=ORDERED
  4.378295890000000E-003  0.204367848500000       1.495220597403593E-009
  0.000000000000000E+000  0.210000000000000       2.672068973772325E-009
  4.378295890000000E-003  0.214367848500000       1.906191256169694E-009
  8.337899450000000E-003  0.224767310000000       3.283062555675172E-009
  0.000000000000000E+000  0.230000000000000       3.035062764376432E-009
  8.337899450000000E-003  0.234767310000000       3.364857073616711E-009
  9.019522550000001E-003  0.244580223000000       3.793263308257292E-009
  0.000000000000000E+000  0.250000000000000       3.276691419195728E-009
  9.019522550000001E-003  0.254580223000000       3.945802736194617E-009
  9.028559449999999E-003  0.264830977000000       4.302318867875243E-009
  0.000000000000000E+000  0.270000000000000       3.559495668028244E-009
  9.028559449999999E-003  0.274830977000000       4.371121932399249E-009
  8.946255950000001E-003  0.284969564000000       4.643996947510932E-009
  0.000000000000000E+000  0.290000000000000       3.780360355052942E-009
  8.946255950000001E-003  0.294969564000000       4.657473232003267E-009
  8.829210800000001E-003  0.305027361500000       4.820117250414514E-009
  0.000000000000000E+000  0.310000000000000       3.913430278705750E-009
  8.829210800000001E-003  0.315027361500000       4.807324288195049E-009
  8.755177899999999E-003  0.325035185000000       4.934928401864394E-009
  0.000000000000000E+000  0.330000000000000       3.957772133269814E-009
  8.755177899999999E-003  0.335035185000000       4.917876898551748E-009
  8.710470450000000E-003  0.345029931000000       4.915206377534907E-009
  0.000000000000000E+000  0.350000000000000       3.957772133269803E-009
  8.710470450000000E-003  0.355029931000000       4.900643595869953E-009
  8.682255300000000E-003  0.365022471500000       4.790985938150493E-009
  0.000000000000000E+000  0.370000000000000       3.902893294305960E-009
  8.682255300000000E-003  0.375022471500000       4.780272828337269E-009
  8.664792050000000E-003  0.385015533000000       4.590692871821494E-009
  0.000000000000000E+000  0.390000000000000       3.769522268097310E-009
  8.664792050000000E-003  0.395015533000000       4.583573288401712E-009
  8.654656000000000E-003  0.405010145000000       4.334144236528165E-009
  0.000000000000000E+000  0.410000000000000       3.577818442387096E-009
  8.654656000000000E-003  0.415010145000000       4.329745218049298E-009
  8.649025600000000E-003  0.425006515500000       4.036557341142875E-009
  0.000000000000000E+000  0.430000000000000       3.344310302907778E-009
  8.649025600000000E-003  0.435006515500000       4.033923061342593E-009
  8.645869750000000E-003  0.445004234000000       3.712573199930859E-009
  0.000000000000000E+000  0.450000000000000       3.083714131530178E-009
  8.645869750000000E-003  0.455004234000000       3.710997708210999E-009
  8.644054999999999E-003  0.465002697500000       3.373472544980928E-009
  0.000000000000000E+000  0.470000000000000       2.807090290171762E-009
  8.644054999999999E-003  0.475002697500000       3.372560116217626E-009
  8.643112900000000E-003  0.485001443000000       3.028056852233555E-009
  0.000000000000000E+000  0.490000000000000       2.522664559220621E-009
  8.643112900000000E-003  0.495001443000000       3.027618635505771E-009
  8.642910900000000E-003  0.505000255000000       2.685355973662620E-009
  0.000000000000000E+000  0.510000000000000       2.237350700173069E-009
  8.642910900000000E-003  0.515000255000000       2.685287291852968E-009
  8.643408450000001E-003  0.524999119000000       2.353727295032849E-009
  0.000000000000000E+000  0.530000000000000       1.959061166591624E-009
  8.643408450000001E-003  0.534999119000000       2.353935273805886E-009
  8.644537799999999E-003  0.544998121000000       2.038450675654439E-009
  0.000000000000000E+000  0.550000000000000       1.692984918354031E-009
  8.644537799999999E-003  0.554998121000000       2.038834781250448E-009
  8.646173849999999E-003  0.564997363000000       1.743545079146671E-009
  0.000000000000000E+000  0.570000000000000       1.442893872235617E-009
  8.646173849999999E-003  0.574997363000000       1.744006035986462E-009
  8.648148450000000E-003  0.584996917000000       1.472793709468695E-009
  0.000000000000000E+000  0.590000000000000       1.212448675083199E-009
  8.648148450000000E-003  0.594996917000000       1.473248795422657E-009
  0.000000000000000E+000  0.610000000000000       1.003757414275732E-009
  8.650278549999999E-003  0.614996800500000       1.227523703671199E-009
  8.650278549999999E-003  0.604996800500000       1.227130341158212E-009
  8.652395849999999E-003  0.634996983000000       1.007266337822971E-009
  8.652395849999999E-003  0.624996983000000       1.006962077553180E-009
  0.000000000000000E+000  0.630000000000000       8.166656196006871E-010
  8.654370250000000E-003  0.654997404500000       8.121168225094481E-010
  8.654370250000000E-003  0.644997404500000       8.119058500483600E-010
  0.000000000000000E+000  0.650000000000000       6.511436817361330E-010
  8.656122299999999E-003  0.674998008000000       6.411698159238869E-010
  8.656122299999999E-003  0.664998008000000       6.410420161926847E-010
  0.000000000000000E+000  0.670000000000000       5.071634589506518E-010
  8.657613150000000E-003  0.694998779500000       4.948624151935286E-010
  8.657613150000000E-003  0.684998779500000       4.948019932899941E-010
  0.000000000000000E+000  0.690000000000000       3.840050620022027E-010
  8.658803700000000E-003  0.714999779000000       3.726794760494951E-010
  8.658803700000000E-003  0.704999779000000       3.726712378548011E-010
  0.000000000000000E+000  0.710000000000000       2.828720958607235E-010
  8.659585149999999E-003  0.735001158500000       2.719989582351734E-010
  8.659585149999999E-003  0.725001158500000       2.720304747909662E-010
  0.000000000000000E+000  0.730000000000000       2.007701762782043E-010
  8.659717200000000E-003  0.755003160000000       1.897624110173341E-010
  8.659717200000000E-003  0.745003160000000       1.898223909885065E-010
  0.000000000000000E+000  0.750000000000000       1.345502946393124E-010
  8.658844050000000E-003  0.775006108500000       1.246693343553389E-010
  8.658844050000000E-003  0.765006108500000       1.247455304759855E-010
  0.000000000000000E+000  0.770000000000000       8.327431640327712E-011
  8.656662149999999E-003  0.795010439500000       7.475305260832058E-011
  8.656662149999999E-003  0.785010439500000       7.483118037027961E-011
  0.000000000000000E+000  0.790000000000000       4.519413200846322E-011
  8.653243300000000E-003  0.815016801000000       3.786627786216053E-011
  8.653243300000000E-003  0.805016801000000       3.793002779373558E-011
  0.000000000000000E+000  0.810000000000000       1.759799973380976E-011
  8.649381600000000E-003  0.835026258500000       1.313798067894796E-011
  8.649381600000000E-003  0.825026258500000       1.196367845791759E-011
  0.000000000000000E+000  0.830000000000000       1.316764745661177E-011
  8.646573150000000E-003  0.855040581500000       1.855983860262061E-011
  8.646573150000000E-003  0.845040581500000       1.317888053447897E-011
  0.000000000000000E+000  0.850000000000000       1.861960485495366E-011
  8.645787350000000E-003  0.875062114000000       2.014349288086787E-011
  8.645787350000000E-003  0.865062114000000       1.865445021876614E-011
  0.000000000000000E+000  0.870000000000000       2.023145247583387E-011
  8.644949050000000E-003  0.895091430000000       2.119645643559304E-011
  8.644949050000000E-003  0.885091430000000       2.029788500948807E-011
  0.000000000000000E+000  0.890000000000000       2.132164043449618E-011
  8.643364600000000E-003  0.915124612500000       2.237756877853887E-011
  8.643364600000000E-003  0.905124612500000       2.265896415889860E-011
  0.000000000000000E+000  0.910000000000000       2.132164043449618E-011
  8.661802099999999E-003  0.935167459500000       2.243442187760578E-011
  8.661802099999999E-003  0.925167459500000       2.281309702237783E-011
  0.000000000000000E+000  0.930000000000000       2.085647465563677E-011
  8.751439099999999E-003  0.955321262000000       2.158292338098711E-011
  8.751439099999999E-003  0.945321262000000       2.227589041620556E-011
  0.000000000000000E+000  0.950000000000000       1.907943350317348E-011
  8.217119100000000E-003  0.975133347000000       1.942230991766291E-011
  8.217119100000000E-003  0.965133347000000       1.970422819316120E-011
  0.000000000000000E+000  0.970000000000000       1.703333812819085E-011
  4.367296035000000E-003  0.985620589500000       1.022293366261244E-011
  0.000000000000000E+000  0.990000000000000       1.436231723174370E-011
  4.367296035000000E-003  0.995620589500000       8.691426018596166E-012
  1.436729603500000E-002  0.995620589500000       1.441539145004492E-011
  1.000000000000000E-002   1.00000000000000       2.020409656916510E-011
  2.476306075000000E-002  0.991654538000000       2.301960011556493E-011
  3.000000000000000E-002   1.00000000000000       2.477433170322743E-011
  3.476306075000000E-002  0.991654538000000       2.440897473907492E-011
  4.457327035000000E-002  0.990968880500000       2.507915291167174E-011
  5.000000000000000E-002   1.00000000000000       2.477433170322742E-011
  5.457327034999999E-002  0.990968880500000       2.406322017009912E-011
  6.482212630000000E-002  0.990957906500000       1.849287673739373E-011
  7.000000000000001E-002   1.00000000000000       2.158932974679795E-011
  7.482212630000000E-002  0.990957906500000       2.249540105744903E-011
  8.495979765000000E-002  0.991040412500000       7.452382151701276E-011
  9.000000000000000E-002   1.00000000000000       1.151862019736727E-010
  9.495979765000001E-002  0.991040412500000       1.184111063172202E-010
  0.105017477000000       0.991158993000000       2.170824112635005E-010
  0.110000000000000        1.00000000000000       2.765360480008135E-010
  0.115017477000000       0.991158993000000       2.806383683023179E-010
  0.125025698000000       0.991234863500000       4.320161110130955E-010
  0.130000000000000        1.00000000000000       4.979966745254135E-010
  0.135025698000000       0.991234863500000       5.018939313325437E-010
  0.145021112500000       0.991280799500000       6.924739219502485E-010
  0.150000000000000        1.00000000000000       7.348520998863395E-010
  0.155021112500000       0.991280799500000       7.378360741712109E-010
  0.165014446000000       0.991309184000000       9.309753426406315E-010
  0.170000000000000        1.00000000000000       9.033679526536662E-010
  0.175014446000000       0.991309184000000       9.296385123296898E-010
  0.185008372000000       0.991325798000000       1.042373567525330E-009
  0.190000000000000        1.00000000000000       9.033679526536674E-010
  0.195008372000000       0.991325798000000       1.041503361088882E-009
  0.205003931500000       0.991334419500000       9.211124640978377E-010
  0.210000000000000        1.00000000000000       8.920364074766547E-010
  0.215003931500000       0.991334419500000       9.207507337060229E-010
  0.225001369000000       0.991338317000000       6.389528769171144E-010
  0.230000000000000        1.00000000000000       6.297158113801412E-010
  0.235001369000000       0.991338317000000       6.388654318998385E-010
  0.245000312500000       0.991339928500000       9.953151093770511E-010
  0.250000000000000        1.00000000000000       1.388980846936881E-009
  0.255000312500000       0.991339928500000       1.388937186990552E-009
  0.265000173000000       0.991340706500000       1.992604369630285E-009
  0.270000000000000        1.00000000000000       2.420410448164641E-009
  0.275000173000000       0.991340706500000       2.420188171050492E-009
  0.285000451000000       0.991341341500000       2.853749760013423E-009
  0.290000000000000        1.00000000000000       2.986472701820628E-009
  0.295000451000000       0.991341341500000       2.985992695615700E-009
  0.305000836500000       0.991342084000000       2.985992963541833E-009
  0.310000000000000        1.00000000000000       2.986472701820636E-009
  0.315000836500000       0.991342084000000       2.803484416095321E-009
  0.325001171500000       0.991342975000000       2.335718088093488E-009
  0.330000000000000        1.00000000000000       2.336234473738414E-009
  0.335001171500000       0.991342975000000       1.107259443152878E-009
  0.345001385500000       0.991343972000000       3.210590309734916E-009
  0.350000000000000        1.00000000000000       5.330502124530877E-009
  0.355001385500000       0.991343972000000       5.328181989141473E-009
  0.365001452000000       0.991344999500000       9.610466038292317E-009
  0.370000000000000        1.00000000000000       1.216100410941950E-008
  0.375001452000000       0.991344999500000       1.215458844591500E-008
  0.385001373500000       0.991345975500000       1.759970359747195E-008
  0.390000000000000        1.00000000000000       1.983210745563524E-008
  0.395001373500000       0.991345975500000       1.982004655437232E-008
  0.405001173500000       0.991346824500000       2.566096100569693E-008
  0.410000000000000        1.00000000000000       2.662256995201257E-008
  0.415001173500000       0.991346824500000       2.660468856983598E-008
  0.425000889000000       0.991347492500000       3.154622603788979E-008
  0.430000000000000        1.00000000000000       2.985496368045038E-008
  0.435000889000000       0.991347492500000       3.154341793717659E-008
  0.445000560500000       0.991347949000000       3.133863707238151E-008
  0.450000000000000        1.00000000000000       2.985496368045038E-008
  0.455000560500000       0.991347949000000       3.133687809308520E-008
  0.465000217500000       0.991348183000000       2.549366350248934E-008
  0.470000000000000        1.00000000000000       2.551202442323935E-008
  0.475000217500000       0.991348183000000       2.214842102760592E-008
  0.484999875500000       0.991348196000000       1.326976346130019E-008
  0.490000000000000        1.00000000000000       1.937262261760069E-008
  0.494999875500000       0.991348196000000       1.935856824855421E-008
  0.504999542000000       0.991347991500000       3.739039785925265E-008
  0.510000000000000        1.00000000000000       5.271121720962481E-008
  0.514999542000000       0.991347991500000       5.267478941891255E-008
  0.524999224000000       0.991347576500000       7.524693018199577E-008
  0.530000000000000        1.00000000000000       8.949173293726993E-008
  0.534999224000000       0.991347576500000       8.943452631477796E-008
  0.544998939500000       0.991346963000000       1.077767812957520E-007
  0.550000000000000        1.00000000000000       1.119487858282313E-007
  0.554998939500000       0.991346963000000       1.118847638527903E-007
  0.564998717000000       0.991346176000000       1.147531482854585E-007
  0.570000000000000        1.00000000000000       1.119487858282307E-007
  0.574998717000000       0.991346176000000       1.147678884700579E-007
  0.590000000000000        1.00000000000000       1.012530880836336E-007
  0.594998586500000       0.991345259500000       7.746830313715800E-008
  0.584998586500000       0.991345259500000       1.011975862406213E-007
  0.614998569500000       0.991344273500000       5.990654834362849E-008
  0.604998569500000       0.991344273500000       4.276143235155756E-008
  0.610000000000000        1.00000000000000       5.992575514247371E-008
  0.634998669000000       0.991343286000000       1.785866475175562E-007
  0.624998669000000       0.991343286000000       1.297399365856393E-007
  0.630000000000000        1.00000000000000       1.786295156627289E-007
  0.654998873000000       0.991342357000000       2.559110233045261E-007
  0.644998873000000       0.991342357000000       2.403993742463454E-007
  0.650000000000000        1.00000000000000       2.559544706747191E-007
  0.674999171500000       0.991341530000000       2.715972763423466E-007
  0.664999171500000       0.991341530000000       2.715747684861950E-007
  0.670000000000000        1.00000000000000       2.559544706747191E-007
  0.694999584500000       0.991340837000000       1.877852547126529E-007
  0.684999584500000       0.991340837000000       2.326529814287344E-007
  0.690000000000000        1.00000000000000       2.326798004460976E-007
  0.715000199000000       0.991340327000000       6.366045865108147E-008
  0.705000199000000       0.991340327000000       1.146126105496472E-007
  0.710000000000000        1.00000000000000       1.146172374506278E-007
  0.735001200500000       0.991340113500000       1.659378008443345E-007
  0.725001200500000       0.991340113500000       1.450715637498516E-007
  0.730000000000000        1.00000000000000       1.659530438053098E-007
  0.755002895000000       0.991340404500000       2.129296804998732E-007
  0.745002895000000       0.991340404500000       2.129913395963553E-007
  0.750000000000000        1.00000000000000       1.705625331590724E-007
  0.775005722500000       0.991341466000000       1.260286017014197E-007
  0.765005722500000       0.991341466000000       1.705859572708283E-007
  0.770000000000000        1.00000000000000       1.705625331590724E-007
  0.795010279500000       0.991343459500000       2.806238554923391E-007
  0.785010279500000       0.991343459500000       1.721033399314254E-007
  0.790000000000000        1.00000000000000       2.808584645456914E-007
  0.815017367500000       0.991346171500000       4.012853025657166E-007
  0.805017367500000       0.991346171500000       4.019836165244619E-007
  0.810000000000000        1.00000000000000       3.530354692526968E-007
  0.835028107500000       0.991348760500000       2.276576960756569E-007
  0.825028107500000       0.991348760500000       3.532574762649798E-007
  0.830000000000000        1.00000000000000       3.530354692526988E-007
  0.855044141500000       0.991349863000000       9.406433241023130E-007
  0.845044141500000       0.991349863000000       4.593689357241138E-007
  0.850000000000000        1.00000000000000       9.435472968098597E-007
  0.875067482500000       0.991348842500000       1.910845697065215E-006
  0.865067482500000       0.991348842500000       1.483625822555002E-006
  0.870000000000000        1.00000000000000       1.918803599713582E-006
  0.895098253500000       0.991348226500000       2.137593809213135E-006
  0.885098253500000       0.991348226500000       2.158729751766181E-006
  0.890000000000000        1.00000000000000       1.918803599713582E-006
  0.915132124000000       0.991349123500000       1.307449020006855E-006
  0.905132124000000       0.991349123500000       1.899514272218339E-006
  0.910000000000000        1.00000000000000       1.888439315834139E-006
  0.935174657500000       0.991331000000000       1.569356687541367E-006
  0.925174657500000       0.991331000000000       5.858780646172536E-007
  0.930000000000000        1.00000000000000       1.581779001631696E-006
  0.955327097500000       0.991242725500000       3.119230906400376E-006
  0.945327097500000       0.991242725500000       2.686808237175625E-006
  0.950000000000000        1.00000000000000       3.142478943423639E-006
  0.975136955500000       0.991779272500000       3.142987293089049E-006
  0.965136955500000       0.991779272500000       3.189821455695104E-006
  0.970000000000000        1.00000000000000       3.142478943423639E-006
  0.985621033000000       0.995632260500000       1.956828252342679E-006
  0.990000000000000        1.00000000000000       2.748930213489626E-006
  0.995621033000000       0.995632260500000       8.389445446256422E-007
  0.995621033000000       0.985632260500000       9.677261202411504E-007
   1.00000000000000       0.990000000000000       1.257083111361491E-006
  0.991658164500000       0.975233312500000       1.981703213954573E-006
   1.00000000000000       0.970000000000000       1.128163729171843E-006
  0.991658164500000       0.965233312500000       2.031174385005339E-006
  0.990974821000000       0.955420785000000       1.301402785088551E-006
   1.00000000000000       0.950000000000000       1.906615832486374E-006
  0.990974821000000       0.945420785000000       2.007284985436373E-006
  0.990965293000000       0.935170462000000       1.953238057708570E-006
   1.00000000000000       0.930000000000000       4.266052881748103E-006
  0.990965293000000       0.925170462000000       4.440787041309771E-006
  0.991047923500000       0.915032562000000       4.367553062445522E-006
   1.00000000000000       0.910000000000000       6.438077077482872E-006
  0.991047923500000       0.905032562000000       6.611699975244396E-006
  0.991164755000000       0.894976230000000       6.543437409240757E-006
   1.00000000000000       0.890000000000000       6.438077077482872E-006
  0.991164755000000       0.884976230000000       6.151263347763500E-006
  0.991235238500000       0.874972155000000       6.129564678653610E-006
   1.00000000000000       0.870000000000000       6.066192500919201E-006
  0.991235238500000       0.864972155000000       5.042204941102462E-006
  0.991266117000000       0.854988398500000       3.033149574170459E-006
   1.00000000000000       0.850000000000000       2.301287507113410E-005
  0.991266117000000       0.844988398500000       2.314651766951082E-005
  0.991248931000000       0.835028762500000       3.225168668746321E-005
   1.00000000000000       0.830000000000000       1.462430748605105E-004
  0.991248931000000       0.825028762500000       1.476038685714175E-004
  0.991104542000000       0.815126384000000       1.790475702293725E-004
   1.00000000000000       0.810000000000000       7.841647619435768E-004
  0.991104542000000       0.805126384000000       8.050931659951025E-004
  0.986977887000000       0.788125014500000       2.259560101209519E-003
  0.990414992000000       0.795319068500000       8.403486767833401E-004
  0.996562895000000       0.792805946000000       2.712456047919020E-003
  0.996562895000000       0.782805946000000       4.065155901144092E-003
  0.996562895000000       0.787805946000000       1.505421550696127E-003
   1.00000000000000       0.785000000000000       4.580967151174723E-003
   1.00000000000000       0.795000000000000       1.845924026289935E-003
  0.996387044500000       0.776954875500000       5.563560534013475E-003
   1.00000000000000       0.775000000000000       1.256808371720913E-002
  0.996387044500000       0.771954875500000       1.032573004917925E-002
  0.988442621000000       0.771479809000000       5.847854120036272E-003
  0.991950080000000       0.769990145000000       1.206771820204893E-002
  0.987618612000000       0.767560203000000       1.148141919846439E-002
  0.993390708500000       0.764411928000000       2.540255769207753E-002
  0.993511333000000       0.766805394000000       9.704563399249858E-003
  0.995775970500000       0.765146783000000       2.168723510776296E-002
  0.997827673000000       0.761376658500000       4.621903120554396E-002
  0.997827673000000       0.763876658500000       2.213142554129777E-002
   1.00000000000000       0.762500000000000       4.492855053273794E-002
   1.00000000000000       0.767500000000000       2.062182103197032E-002
  0.997948297500000       0.766270124500000       1.990440453173677E-002
  0.997948297500000       0.768770124500000       9.300937277344882E-003
  0.994335342000000       0.770725000000000       1.379090536146084E-002
  0.997818539000000       0.758811558000000       5.137468101469195E-002
   1.00000000000000       0.757500000000000       0.103138620302892     
  0.997818539000000       0.756311558000000       0.105010769340845     
  0.993444922000000       0.756394254500000       5.197260473374951E-002
  0.995589458000000       0.755087651500000       0.119771712971518     
  0.993397302000000       0.753858790000000       0.118605710099863     
  0.997770919000000       0.751276093500000       0.247443215311212     
  0.997770919000000       0.753776093500000       0.120105570905044     
   1.00000000000000       0.752500000000000       0.240843640559250     
  0.989057884500000       0.753905164000000       4.846111331713428E-002
  0.991167319000000       0.752615321000000       0.110326184072714     
  0.988972437500000       0.751355092000000       0.106911446992286     
  0.984683319000000       0.751345568500000       4.003846981616659E-002
  0.986789573000000       0.750096205000000       9.313519041930843E-002
  0.984609889000000       0.748796838500000       8.945088082021663E-002
  0.988674253500000       0.746294617000000       0.196329329002805     
  0.988899007500000       0.748806362000000       0.108957939325738     
  0.990857118000000       0.747553504000000       0.212980989312382     
  0.992221530000000       0.744476654500000       0.311132556302477     
  0.992848924500000       0.746290897500000       0.252658178501284     
  0.994438090500000       0.745725793000000       0.354115512248282     
  0.994807169500000       0.743205499000000       0.463386130407764     
  0.994959948000000       0.744369772000000       0.281064129495155     
  0.995956421500000       0.743663721000000       0.445551856008944     
  0.995587342500000       0.746184015000000       0.330073712955094     
  0.996833926000000       0.741875016000000       0.769054914431541     
  0.996880669500000       0.743125396000000       0.488529088443091     
  0.997910952500000       0.742500964000000       0.798747126574785     
  0.998932104500000       0.740625292000000        1.17137688120332     
  0.998932104500000       0.741875292000000       0.789775262112388     
   1.00000000000000       0.741250000000000        1.18321490699501     
   1.00000000000000       0.743750000000000       0.730615284506147     
  0.998978848000000       0.743125672000000       0.699980839058669     
  0.998978848000000       0.744375672000000       0.469381403558073     
  0.996617459000000       0.746985963000000       0.356482646808942     
  0.997532742500000       0.748770018000000       0.273764514061253     
  0.999084716500000       0.748215945000000       0.433759604898690     
  0.999084716500000       0.745715945000000       0.410369992033788     
  0.999084716500000       0.746965945000000       0.249328534726238     
   1.00000000000000       0.746250000000000       0.441435318411265     
   1.00000000000000       0.748750000000000       0.294103450316760     
  0.997139316500000       0.745629942000000       0.296566189074531     
  0.997033448000000       0.744289669000000       0.419460756912490     
  0.998063564500000       0.745091617000000       0.527250399642252     
  0.995303661500000       0.750046111500000       0.249983267816661     
  0.993311855000000       0.751308718000000       0.120590179829269     
  0.993073678500000       0.748802642500000       0.234184927212884     
  0.998919729500000       0.739375270500000        1.28757079752856     
   1.00000000000000       0.738750000000000        1.89869888716412     
  0.998919729500000       0.738125270500000        1.89593087615175     
  0.996756932000000       0.738125758000000        1.28961437887197     
  0.997837292500000       0.737500470500000        2.06780892557137     
  0.996754765500000       0.736875687500000        2.06481776390545     
  0.998917563000000       0.735625200000000        2.99792971664738     
  0.998917563000000       0.736875200000000        2.06738805810110     
   1.00000000000000       0.736250000000000        2.99788664431066     
  0.994591665000000       0.736876168000000        1.25283819463615     
  0.995672096500000       0.736250839500000        2.01637731812294     
  0.994589356500000       0.735626032500000        2.01348769662337     
  0.992426179500000       0.735626544500000        1.14854569151517     
  0.993506680000000       0.735001162500000        1.86071097017233     
  0.992423934500000       0.734376346000000        1.85807973989582     
  0.994586942000000       0.733125716500000        3.18967882184166     
  0.994587111500000       0.734375834000000        2.01625269605744     
  0.995669618500000       0.733750586500000        3.18971755198117     
  0.996752106000000       0.731875322000000        4.95897030352235     
  0.996752084000000       0.733125369000000        3.25470722524548     
  0.997834741000000       0.732500222000000        4.95843494332380     
  0.998917381500000       0.730625087500000        6.72083379737685     
  0.998917381500000       0.731875087500000        4.95837298144870     
   1.00000000000000       0.731250000000000        6.72019471209084     
   1.00000000000000       0.733750000000000        4.59460632617494     
  0.998917359500000       0.733125134500000        4.59519968359205     
  0.998917359500000       0.734375134500000        3.25467472391414     
  0.997834922500000       0.735000334500000        3.25477517070280     
  0.996752457000000       0.735625552000000        2.06776012239793     
  0.996752253500000       0.734375486500000        3.25473839309334     
  0.990260703000000       0.734376914500000        1.04850587673697     
  0.991341267000000       0.733751468500000        1.70674739437409     
  0.990258536000000       0.733126655000000        1.70436970732877     
  0.988095266000000       0.733127300500000       0.967766883060944     
  0.989175880500000       0.732501779500000        1.57915324062991     
  0.988093174500000       0.731876979000000        1.57697792623834     
  0.990256384000000       0.730626124000000        2.74181192155714     
  0.990256444500000       0.731876333500000        1.70645191591779     
  0.991339039500000       0.731250999500000        2.74178495329446     
  0.985929884000000       0.731877718000000       0.899637195790135     
  0.987010537000000       0.731252109500000        1.47020842514513     