 TITLE = "Adapted Mesh"
 VARIABLES = "X", "Y"
 ZONE T = "Domain", N=       21151 E=       42052 
 DATAPACKING=POINT, ZONETYPE=FEQUADRILATERAL
  8.757529502321918E-003  0.208735668184425     
  0.990346675349625       1.295952490929437E-002
  0.991241604685394       0.991264470483291     
  8.734767139271567E-003  0.991240842239920     
  0.451119909964692       0.577305182984301     
  0.467661465290908       0.575026540487683     
  0.487351009260896       0.573093018135768     
  0.508111649776017       0.571821718726047     
  0.529089269058665       0.571549321911482     
  0.546645546200681       0.573367735146104     
  0.563480127965447       0.567354010397731     
  0.419405580856168       0.587362011056626     
  0.408002064825544       0.579847767791531     
  0.433645249523459       0.570501783590509     
  0.415115970161473       0.572621684845199     
  0.440493696389756       0.589193555713287     
  0.459420310939210       0.590203242145724     
  0.454676464959901       0.562441886566334     
  0.475114291384327       0.558524276827632     
  0.478488702556912       0.589454843037955     
  0.496385538257469       0.556030883088863     
  0.498418636068069       0.588555383203897     
  0.518681524537645       0.587974008493654     
  0.518686036498826       0.554539494247489     
  0.538467534754600       0.587742138933680     
  0.543772813593368       0.554585176344630     
  0.558183052559295       0.586257457741779     
  0.583359706379794       0.559985147335690     
  0.567130533033356       0.547526545127995     
  0.581485753166335       0.582954539058399     
  0.585011261092380       0.542584278921960     
  0.393695125362721       0.606896817155291     
  0.410353889454085       0.605297850008198     
  0.398671856940865       0.589710785896256     
  0.429941611212392       0.605033278807414     
  0.399302944877611       0.570399912329614     
  0.449719309480306       0.605479927675832     
  0.439391375429634       0.549643232482969     
  0.415725092631318       0.555770319031000     
  0.396228309447342       0.554001618125141     
  0.461441024389622       0.544552446823971     
  0.469234783999270       0.605513189799928     
  0.483340690502442       0.540912052194086     
  0.488943740661972       0.605100478657642     
  0.508930004022844       0.604631473187842     
  0.505714133881685       0.538169522656029     
  0.528973854144232       0.604237338070555     
  0.528887005907143       0.535875859516422     
  0.549063836682855       0.603684444446391     
  0.552200509846936       0.532550628205077     
  0.601541617916492       0.570219414892392     
  0.569735575323404       0.602958989613970     
  0.574551215831869       0.528630240872528     
  0.601127735842901       0.549705312933086     
  0.603612026124742       0.590260096804163     
  0.590216687782787       0.604022863306713     
  0.598414547357001       0.527495791913486     
  0.607019606223973       0.606589599610473     
  0.379565488348834       0.619477900816598     
  0.400602069587203       0.621586949414860     
  0.379592845696342       0.598809468208403     
  0.420095587872950       0.621681987248453     
  0.380778870653120       0.579928240209363     
  0.439817776993240       0.621741661157384     
  0.424344497795858       0.535066904378234     
  0.381161655685036       0.561635177272037     
  0.402608637721171       0.538993103360521     
  0.446948447124299       0.530420745314847     
  0.459573458469333       0.621797797585667     
  0.383014198395101       0.544005413196461     
  0.469445398157771       0.526281150654289     
  0.479353243625636       0.621667639876599     
  0.492022018161701       0.522789877171369     
  0.499250687892323       0.621401863152468     
  0.519255007160228       0.621111614314216     
  0.514842621625763       0.519669721153403     
  0.539332770203502       0.620816369471181     
  0.537806124111333       0.516426849060141     
  0.559538201734464       0.620549129795736     
  0.560615477352627       0.512807327101789     
  0.579745494491005       0.620632864962898     
  0.620053059467083       0.579341020974698     
  0.619250340690224       0.559355797976054     
  0.618729824758120       0.538911057218274     
  0.583407200249575       0.509233505260974     
  0.621087756850997       0.598634478384645     
  0.599505506111775       0.620962091498840     
  0.620472526360225       0.619179494616274     
  0.619943914827294       0.518749037183578     
  0.605581477342215       0.504957633424254     
  0.623015762512347       0.501879441622696     
  0.369856937518402       0.638634247618246     
  0.361098811798643       0.624504828182363     
  0.390012375021661       0.638108226368987     
  0.362348300028236       0.608050646498458     
  0.410092398234043       0.638375162106761     
  0.362887297403907       0.589189397431418     
  0.429929609320391       0.638442676780483     
  0.363589784866685       0.570378930393745     
  0.409630099987910       0.520427334652660     
  0.432304206302331       0.516011068027627     
  0.449763787287967       0.638453331850978     
  0.364722295250941       0.551782394433255     
  0.387388196980187       0.525522452931147     
  0.455125815937100       0.511831766327698     
  0.469615597226132       0.638401227854646     
  0.366728863451913       0.532864703997509     
  0.477943413132917       0.508001797228389     
  0.489511665300841       0.638269633748457     
  0.509472645408642       0.638094014395213     
  0.500766289520850       0.504449723950035     
  0.529493859096420       0.637915141268913     
  0.523563814555550       0.500939935509291     
  0.549569025066623       0.637767838664350     
  0.546254484839472       0.497214179031910     
  0.569661936896444       0.637721233091332     
  0.637014847385269       0.569034664205348     
  0.568883718572973       0.493147049441802     
  0.636593286804230       0.549107843165899     
  0.637464496875826       0.588671236670023     
  0.589680363404275       0.637773221790516     
  0.629623330657507       0.638279210607856     
  0.638490953089348       0.624299109623099     
  0.609746219133176       0.637665259415573     
  0.637646382402505       0.607825160845683     
  0.636538202710967       0.529262147499129     
  0.591759950842434       0.488618212521494     
  0.636848598017250       0.510197143247369     
  0.616338828398031       0.483983620483749     
  0.635849999129320       0.491721265906500     
  0.631477113801960       0.479330924533835     
  0.343305112421186       0.657000677237610     
  0.360321174229680       0.655728992542283     
  0.348239930959559       0.638661377393610     
  0.380059318978972       0.655428362013106     
  0.345717775170779       0.617835345905137     
  0.400029505194995       0.655322623066252     
  0.345563988060409       0.598730536886395     
  0.419984221852641       0.655347064547641     
  0.345925200414123       0.579624583160754     
  0.417558820317063       0.501633399765717     
  0.439889377653584       0.655347018470893     
  0.346686461893317       0.560644921981012     
  0.394200075523313       0.506143564338951     
  0.440650152074529       0.497472245794432     
  0.459787484684100       0.655314379830993     
  0.368913529628571       0.511484375608673     
  0.347906850401058       0.541814053676833     
  0.463668646046347       0.493533288835509     
  0.479700406350506       0.655244435843465     
  0.348911232008537       0.507953707581063     
  0.349267375152412       0.523293647747445     
  0.486589567570431       0.489768348378577     
  0.499644020261977       0.655144254666398     
  0.519624751575032       0.655034712232028     
  0.509349063490249       0.486060066916622     
  0.539638925199110       0.654939399292830     
  0.531868378783847       0.482217062650857     
  0.559670035271004       0.654881978626126     
  0.554149361434342       0.478003780665793     
  0.653983253421589       0.558984646022943     
  0.654313775961039       0.578779976220291     
  0.579681769024677       0.654867343372132     
  0.654865692948379       0.656216854639871     
  0.638706135424986       0.655113665192488     
  0.650736894509829       0.638410625269285     
  0.619428019280675       0.654930738177281     
  0.653775380882924       0.617711368301909     
  0.599639665150221       0.654856789352219     
  0.654338022671951       0.598396467605743     
  0.653544910753108       0.539173943065412     
  0.576409876786390       0.473147728207696     
  0.653076590533321       0.519545622141135     
  0.599249901250180       0.467343449738679     
  0.652251472027331       0.500183072188415     
  0.617043475854745       0.466040872315751     
  0.654607922283380       0.477798054829817     
  0.642497456219509       0.459254840341037     
  0.659161513139198       0.460593454037688     
  0.655522646041254       0.447811490494817     
  0.329005983765482       0.669891217701999     
  0.350413720807847       0.672233818738785     
  0.328662549633000       0.648464604238011     
  0.370152020532516       0.672436362262077     
  0.328896707161245       0.628499632917913     
  0.390058598760048       0.672414450771221     
  0.328441199812548       0.608682755750224     
  0.410019010864053       0.672390610243883     
  0.328467856482532       0.589232613524061     
  0.429969276663883       0.672377751684583     
  0.328904148137557       0.569938433152330     
  0.402889303270918       0.487244582700578     
  0.426159297499235       0.483192770348534     
  0.449902781434054       0.672353056444863     
  0.379506609839649       0.491273770811225     
  0.329770141977542       0.550829417861102     
  0.449325416952521       0.479248965779461     
  0.469833621442065       0.672310786600255     
  0.357247858243398       0.494044106416077     
  0.331099020023563       0.532068713267456     
  0.472359350574385       0.475393941226121     
  0.489774664888648       0.672251908696759     
  0.332969461050427       0.514229033087971     
  0.337129986378663       0.497376566012413     
  0.509734377214234       0.672184172944602     
  0.495172419823453       0.471572378328466     
  0.529715011332641       0.672119319818059     
  0.517625569302505       0.467688571737211     
  0.549711004558439       0.672067528863613     
  0.539595676704196       0.463540855724903     
  0.671247632264575       0.568788697253721     
  0.569706233023558       0.672028994116732     
  0.667070290606667       0.667896815668339     
  0.648243293456790       0.671039912762173     
  0.669400241194110       0.648498351571353     
  0.629191088815009       0.671696728839272     
  0.670107840284958       0.628626796409646     
  0.609548034722933       0.671902414818338     
  0.671096619235249       0.608567213611032     
  0.589671999263900       0.671984109461190     
  0.671421909129154       0.588684418603011     
  0.670685612399687       0.548937465493702     
  0.561138616295672       0.458779000598977     
  0.669894010321282       0.529167984833746     
  0.582547137377063       0.452941491182275     
  0.669008559808602       0.509316736662475     
  0.599979104613848       0.449756017889015     
  0.673795176269184       0.488223050610618     
  0.625387134011412       0.444252322872348     
  0.672394973143661       0.469987420621965     
  0.644141732610411       0.438541195245701     
  0.672487999947428       0.449464117921677     
  0.661395643295873       0.433829799241398     
  0.680122870557978       0.430436725489135     
  0.319335532838930       0.689389514421269     
  0.310353103137416       0.674996408929080     
  0.339726073418727       0.688967006856671     
  0.311349434321518       0.658129349657567     
  0.360037812761386       0.689353837720974     
  0.311339510391123       0.638572292472878     
  0.380059501699261       0.689473612356352     
  0.311212472362059       0.618803521846825     
  0.400046490211403       0.689491462214935     
  0.311119983769268       0.599101903437580     
  0.420020786034718       0.689483506427808     
  0.311310548197632       0.579535942128600     
  0.411791604419039       0.468974176264421     
  0.439979127146334       0.689466194902373     
  0.388628149442495       0.472840615048293     
  0.311871859130049       0.560104344455206     
  0.434998125216845       0.465085694796390     
  0.459926393071740       0.689439445816054     
  0.365890338359836       0.476522219501470     
  0.312914609479434       0.540860641376075     
  0.458107399572967       0.461201910284034     
  0.479871788709626       0.689403331184259     
  0.314663344631872       0.521925683813823     
  0.344038231784780       0.480292244520316     
  0.499823520114041       0.689360356886409     
  0.481017030933178       0.457299155794736     
  0.317733997295006       0.503344343956505     
  0.322882062224520       0.484994879352036     
  0.519786740189812       0.689315186176658     
  0.503578815591276       0.453366038303666     
  0.539762423865658       0.689271757927455     
  0.525497919714168       0.449411806397547     
  0.559746192952691       0.689227979704006     
  0.683675792907634       0.684273929032154     
  0.659973222421530       0.686931691549098     
  0.686102649741528       0.660310990863559     
  0.639514535410202       0.688275842262664     
  0.687333565421791       0.639383877096405     
  0.619601500128733       0.688823624895221     
  0.688093558135963       0.619001766834093     
  0.599686109143905       0.689059276296783     
  0.688575861677823       0.598752363844923     
  0.579727103908587       0.689168797826511     
  0.688593417362933       0.578566418841646     
  0.688007227486046       0.558527899718309     
  0.546528466233205       0.445085938816659     
  0.686908174108277       0.538769896664527     
  0.566875113713110       0.439806672921328     
  0.685719657416910       0.519130368967094     
  0.592516859555911       0.434669360823174     
  0.690547808276424       0.499151970381010     
  0.610695921240090       0.431148838258064     
  0.689132505456265       0.480018158393199     
  0.629929959870509       0.425621193808223     
  0.689626713964212       0.460466511121899     
  0.648505669030273       0.420385813856649     
  0.690197036456060       0.443881789923816     
  0.667604864910717       0.415538836156333     
  0.686298033228597       0.411616605421910     
  0.292630583496549       0.707845025301125     
  0.309795402168010       0.706643696822384     
  0.297485103674826       0.689323395082931     
  0.329724067744656       0.706444407615558     
  0.294708162530468       0.668165227387481     
  0.349883700653091       0.706443367453065     
  0.294178136489282       0.648614553955765     
  0.370006348638993       0.706553293713191     
  0.293937267366944       0.628881711618671     
  0.390047700039174       0.706608368388013     
  0.293808910641598       0.609100061534081     
  0.410049674244732       0.706622896397186     
  0.293845901221112       0.589356804114616     
  0.430027748766586       0.706618705918345     
  0.397595461024588       0.454856529976979     
  0.294150011219802       0.569682801809331     
  0.449989445817238       0.706604677643513     
  0.420740128771696       0.451022391037799     
  0.374619508534486       0.458670066643086     
  0.294830780021736       0.550085367116264     
  0.469942306176084       0.706583360718308     
  0.443850185269263       0.447140598961989     
  0.296057736170508       0.530551584318935     
  0.352055180415918       0.462567686236086     
  0.489893709840137       0.706556084582390     
  0.466810859861358       0.443169603124345     
  0.298142787234677       0.510973897969729     
  0.329949410697620       0.466814156855663     
  0.489549679297125       0.439095385588882     
  0.509849649573752       0.706524473512226     
  0.301632591443128       0.491084849832733     
  0.307825442053119       0.471587539650965     
  0.529814117726186       0.706489636837884     
  0.511905201870000       0.435050876450160     
  0.549788786881401       0.706449302786450     
  0.708292125552228       0.709211967631919     
  0.705579973717482       0.692282534676443     
  0.691575053130572       0.706191205565959     
  0.671065580292413       0.704748385382378     
  0.704226189333660       0.671487794942638     
  0.650146458664603       0.705267430393258     
  0.704747730089887       0.650204085857924     
  0.629837762669451       0.705803132408072     
  0.705374487680060       0.629466842176708     
  0.609771378164413       0.706124823622670     
  0.705868296384549       0.608933795697980     
  0.589765206196743       0.706299189830396     
  0.706099585007300       0.588404189805698     
  0.569772988328900       0.706393426863935     
  0.705800253933494       0.567841729835113     
  0.532966431581966       0.431618494782942     
  0.704285981264325       0.547875159289306     
  0.552361568385195       0.427209044309280     
  0.702351120051557       0.528669432367148     
  0.576822753729594       0.421493177593920     
  0.706052927934322       0.509401696080397     
  0.595860851127708       0.417097137693543     
  0.706517502928303       0.489764141207728     
  0.615437283634769       0.411941695655839     
  0.706429563076730       0.469919355569190     
  0.634735100382562       0.406801129019050     
  0.705838009977510       0.450299953274688     
  0.653552874694187       0.401525860092102     
  0.701906398368664       0.428199082034120     
  0.710044851197491       0.389840039251812     
  0.693593933548590       0.390443565454167     
  0.707133713377997       0.404452724462750     
  0.673167859360817       0.394453991598487     
  0.278278363256395       0.720774012163746     
  0.299875829468263       0.723241851532724     
  0.277807303854270       0.699160264391172     
  0.319780378546417       0.723546425612727     
  0.277876624051139       0.678976971543031     
  0.339848742610577       0.723623938117619     
  0.277153491456465       0.658861535925055     
  0.359956116467502       0.723689203316661     
  0.276758614550827       0.639003641178853     
  0.380029675988055       0.723747736418486     
  0.276546229942472       0.619158160893484     
  0.400058761318608       0.723779760685424     
  0.276478351710927       0.599316847322858     
  0.420055502735037       0.723790979241833     
  0.276593185920916       0.579496364019818     
  0.440030494644988       0.723789647608804     
  0.406562444220365       0.437058196763160     
  0.383490943267544       0.440885182385092     
  0.276964858128802       0.559696027209868     
  0.459992080007831       0.723780185903492     
  0.429618052398367       0.433190550188180     
  0.360588521803907       0.444766927578044     
  0.277695691682964       0.539880665202919     
  0.479947367350153       0.723764381982317     
  0.452528619612353       0.429190711417025     
  0.338008597825144       0.448824020078446     
  0.278921948995487       0.519925252014816     
  0.475276337730522       0.424969209486387     
  0.499902334302729       0.723743044942675     
  0.280794138289543       0.499417979092874     
  0.315817575885026       0.453119719841929     
  0.283433541823235       0.476642050730930     
  0.294249576370228       0.457340499644441     
  0.519861843739413       0.723716332134731     
  0.497993500075581       0.420512362531414     
  0.276387801059542       0.459515380984105     
  0.539829836479028       0.723682580460433     
  0.721068241836391       0.722674523402308     
  0.722967436726381       0.701303846053783     
  0.700160276983176       0.723609934281518     
  0.722618459638939       0.681205533350556     
  0.680565209267358       0.722991036428332     
  0.660356965629265       0.722773809383929     
  0.722499355903914       0.660571331593459     
  0.640053578348988       0.722993522779334     
  0.722819514848546       0.639833600711523     
  0.619891262371087       0.723255454886400     
  0.723252223855342       0.619155936421890     
  0.599825247836053       0.723444972036418     
  0.723642728550124       0.598412677130980     
  0.579805446039620       0.723563678683728     
  0.723840944324556       0.577417938572078     
  0.521033504090625       0.416092622608661     
  0.559809713681750       0.723635935481347     
  0.723544420236715       0.555726974742112     
  0.539687046378584       0.416716847918925     
  0.718569128685145       0.537229916286516     
  0.561598008669253       0.409431049218720     
  0.722620403589077       0.519031639162341     
  0.582454553757303       0.404180852680951     
  0.723692716871770       0.499619832907799     
  0.601612580567254       0.398341241914440     
  0.723477196072446       0.479712798825594     
  0.620709322866897       0.393067535138790     
  0.723522157134618       0.459686967837994     
  0.639902785072548       0.386551286376972     
  0.724071045764651       0.439660649887535     
  0.728556584884500       0.363127248126707     
  0.713267288940711       0.368541815555329     
  0.727885774762754       0.379901472350647     
  0.694540308620262       0.374320273023273     
  0.728086452875732       0.399241438834252     
  0.678081448970664       0.374418446258063     
  0.721885476927766       0.419614436467324     
  0.657638847178874       0.384443546361671     
  0.268629690464587       0.740378489065446     
  0.259504404103900       0.725833588214127     
  0.289174429882249       0.740044918845267     
  0.260418080603039       0.708838816240470     
  0.309640964657091       0.740529974934110     
  0.260281820051358       0.689115471524723     
  0.329806365184436       0.740742523917524     
  0.259971837987881       0.669143908446279     
  0.349923203654431       0.740844965613387     
  0.259593092118968       0.649179020744662     
  0.370008457533167       0.740909475042657     
  0.259329732547549       0.629261491234302     
  0.390055510500367       0.740951754248163     
  0.259187659935731       0.609355857846806     
  0.410068083752547       0.740975561880423     
  0.259176186580394       0.589454790541951     
  0.430055282786487       0.740985904285918     
  0.392445553153299       0.423175377276603     
  0.259330932572785       0.569552841996214     
  0.450025891314457       0.740986828401344     
  0.415456507448327       0.419322180185412     
  0.369397071408285       0.427028594138250     
  0.259706409865006       0.549626790132279     
  0.469987157704825       0.740980472153611     
  0.438263490844661       0.415353399231687     
  0.346495359421845       0.430980864822661     
  0.260358970050523       0.529615661503468     
  0.460809060237673       0.411112385937832     
  0.489944901091438       0.740967664599930     
  0.261293264218024       0.509394368026837     
  0.323908431259510       0.435119275882849     
  0.262266662968997       0.488830440834788     
  0.301886093247465       0.439481381099969     
  0.509903897940994       0.740948464956271     
  0.483249842787210       0.406417004625093     
  0.261871736408132       0.469109822192153     
  0.281146296023986       0.444126372028780     
  0.529868389500010       0.740921912235149     
  0.262246815685300       0.450748747957572     
  0.740493401571379       0.731856736013176     
  0.726116531874353       0.741020222358086     
  0.739980877182667       0.711472986881268     
  0.709382094487030       0.740255603012203     
  0.740161550159310       0.690988002802830     
  0.689992515770312       0.740317877149281     
  0.670164654310911       0.740260564029053     
  0.740172668742634       0.670565092202752     
  0.650089375446693       0.740318131180282     
  0.740324516619054       0.650001389184623     
  0.629966669670522       0.740473324701132     
  0.740654087298892       0.629336914197359     
  0.609882558374911       0.740630200250399     
  0.741089833711023       0.608539084669646     
  0.589841527904553       0.740749697466082     
  0.741584387958653       0.587489709661905     
  0.569831486355315       0.740830994333005     
  0.742120725472311       0.566034836049336     
  0.524154105328022       0.400414151674495     
  0.506131638098425       0.401111280613942     
  0.549842624827283       0.740884939472986     
  0.739259837316584       0.550145902997185     
  0.546258345504884       0.396257773474257     
  0.738450177909012       0.528476618058263     
  0.568090235978540       0.389768727857723     
  0.740821767210193       0.509612706257621     
  0.587457798510846       0.384537278737474     
  0.740770901222267       0.489684626526129     
  0.606547473662067       0.379245802418034     
  0.741035816326544       0.469650912760575     
  0.624770005399494       0.374559489374087     
  0.741135322859172       0.449495203659666     
  0.739847075816797       0.347936912856347     
  0.718635032750117       0.349958149483725     
  0.743343774996777       0.369681693312755     
  0.700097560026822       0.354498958236070     
  0.744234077944745       0.389343139101589     
  0.682125573950806       0.359019435488618     
  0.744980395324018       0.409193325314756     
  0.665192061341604       0.364890849865410     
  0.740893481300192       0.429723495109226     
  0.644984956675846       0.368013504710682     
  0.241815018513451       0.758889235034163     
  0.246610021310663       0.740222604287103     
  0.259105819988362       0.757731662745144     
  0.279177675210712       0.757603655680400     
  0.243706250636633       0.718883978912820     
  0.299475364073256       0.757682318173447     
  0.243071046948234       0.699185651648619     
  0.319727184558627       0.757873051924933     
  0.242701564257909       0.679300858956218     
  0.339884531414889       0.758003545852329     
  0.242385601752184       0.659344730858082     
  0.359986358017618       0.758084725930049     
  0.242124125797114       0.639385369595290     
  0.380046081347233       0.758137081492144     
  0.241946060855443       0.619435550632031     
  0.400070683045437       0.758170612479233     
  0.241860284048233       0.599488899421412     
  0.420068342541574       0.758190520713647     
  0.241881542582886       0.579538336493848     
  0.440047551833002       0.758200284944455     
  0.401392352001031       0.405478189608577     
  0.378357292439398       0.409332219581012     
  0.242035881476095       0.559570668100974     
  0.460015578109772       0.758201983367703     
  0.424159374677160       0.401579105207341     
  0.355276233647687       0.413220738265737     
  0.242350301736356       0.539560785082205     
  0.446474369546979       0.397478112144838     
  0.479978099341919       0.758196561102703     
  0.332329632535629       0.417226151013408     
  0.242823646501938       0.519476345851975     
  0.309666933971859       0.421456233206986     
  0.243364320241080       0.499328734909597     
  0.468364895775130       0.392892148349751     
  0.499939544307631       0.758184229201427     
  0.243719316515461       0.479374633295639     
  0.287431305012206       0.426126531441312     
  0.519903706870408       0.758164570683449     
  0.265651289821764       0.431933067788424     
  0.244119065120008       0.459873621675165     
  0.758942062465300       0.758359477315535     
  0.757776390054872       0.741152305143972     
  0.740373438017857       0.753674648153461     
  0.757580728799324       0.721166250153091     
  0.719203938600289       0.756631107897632     
  0.757535801567560       0.700880490060626     
  0.699688665186256       0.757254708225460     
  0.679940275547470       0.757491277046893     
  0.757619625513052       0.680498313578209     
  0.660005600030212       0.757613152985835     
  0.757762368478972       0.660034473958106     
  0.639970293636703       0.757731088227845     
  0.758025012889933       0.639438609277200     
  0.619912854908971       0.757852708506645     
  0.758424995340610       0.618669997381628     
  0.599871051112126       0.757958117063334     
  0.758979521931420       0.597657513095064     
  0.579852997431242       0.758038444687180     
  0.759759086716358       0.576302751091395     
  0.507887709247216       0.384741288616801     
  0.559855829696106       0.758095831377312     
  0.757286538377813       0.560647056913765     
  0.533814461001419       0.380355030692731     
  0.490147325280154       0.387462307496602     
  0.539874379026137       0.758136152127721     
  0.757246725005495       0.541017418477525     
  0.553784145539643       0.375863961756810     
  0.758028262003629       0.519715777636058     
  0.573309366270364       0.370713896738197     
  0.757872624869138       0.499609781881829     
  0.592576784781803       0.365495349877488     
  0.758373167931333       0.479701292224966     
  0.612043355655341       0.357842625541454     
  0.758261396422705       0.459558072623780     
  0.762648099252750       0.318675593426083     
  0.744300807836364       0.325214214408778     
  0.760024602443566       0.338247624301963     
  0.724758751514879       0.330750795153640     
  0.759477659446831       0.358873035911566     
  0.705400969781770       0.335292798347362     
  0.760315851864005       0.379202080973893     
  0.686694852512974       0.340281233263706     
  0.761069514689520       0.399118869354881     
  0.668194340450234       0.346092145783471     
  0.762093452754868       0.418974775633187     
  0.648776927864413       0.354115197762167     
  0.758389621507183       0.439330528639668     
  0.632471709316684       0.354008361115213     
  0.245268374865012       0.440275664736365     
  0.227415876938584       0.771931741327579     
  0.226823032291007       0.750077939723159     
  0.249205241367062       0.774451401673495     