 TITLE = "Edge Error"
 VARIABLES = "X", "Y","Estimate1" 
 ZONE T = "Domain", I=       35404  DATAPACKING=POINT, ZONETYPE=ORDERED
  4.378295890000000E-003  0.204367848500000       7.321296308700317E-009
  0.000000000000000E+000  0.210000000000000       1.183820971327620E-008
  4.378295890000000E-003  0.214367848500000       7.975120147149138E-009
  8.337899450000000E-003  0.224767310000000       5.987208485457186E-009
  0.000000000000000E+000  0.230000000000000       6.233706413264185E-009
  8.337899450000000E-003  0.234767310000000       3.165091325068640E-009
  9.019522550000001E-003  0.244580223000000       3.168960370641304E-009
  0.000000000000000E+000  0.250000000000000       3.322470020497658E-009
  9.019522550000001E-003  0.254580223000000       3.496112707582784E-009
  9.028559449999999E-003  0.264830977000000       3.402138316791832E-009
  0.000000000000000E+000  0.270000000000000       3.322470020497658E-009
  9.028559449999999E-003  0.274830977000000       8.641973617464540E-010
  8.946255950000001E-003  0.284969564000000       2.522161637368148E-009
  0.000000000000000E+000  0.290000000000000       3.205469611246795E-009
  8.946255950000001E-003  0.294969564000000       3.289954810972911E-009
  8.829210800000001E-003  0.305027361500000       3.256815917770260E-009
  0.000000000000000E+000  0.310000000000000       3.205469611246804E-009
  8.829210800000001E-003  0.315027361500000       2.257315147052697E-009
  8.755177899999999E-003  0.325035185000000       2.812765722002093E-009
  0.000000000000000E+000  0.330000000000000       5.323603430488996E-009
  8.755177899999999E-003  0.335035185000000       5.358161974724751E-009
  8.710470450000000E-003  0.345029931000000       5.354722139874854E-009
  0.000000000000000E+000  0.350000000000000       5.323603430488981E-009
  8.710470450000000E-003  0.355029931000000       3.841725091645813E-009
  8.682255300000000E-003  0.365022471500000       3.842353316622260E-009
  0.000000000000000E+000  0.370000000000000       3.830748840677054E-009
  8.682255300000000E-003  0.375022471500000       2.596699086964387E-009
  8.664792050000000E-003  0.385015533000000       2.597695051495296E-009
  0.000000000000000E+000  0.390000000000000       2.749281413885879E-009
  8.664792050000000E-003  0.395015533000000       2.748230060081519E-009
  8.654656000000000E-003  0.405010145000000       2.749344968280952E-009
  0.000000000000000E+000  0.410000000000000       4.949131565319255E-009
  8.654656000000000E-003  0.415010145000000       4.944222645887816E-009
  8.649025600000000E-003  0.425006515500000       4.945934415175311E-009
  0.000000000000000E+000  0.430000000000000       5.478606752744398E-009
  8.649025600000000E-003  0.435006515500000       5.471494500855796E-009
  8.645869750000000E-003  0.445004234000000       5.472945019831575E-009
  0.000000000000000E+000  0.450000000000000       5.478606752744398E-009
  8.645869750000000E-003  0.455004234000000       4.091840600610236E-009
  8.644054999999999E-003  0.465002697500000       4.092618758863325E-009
  0.000000000000000E+000  0.470000000000000       4.097812562648890E-009
  8.644054999999999E-003  0.475002697500000       1.618525000263298E-009
  8.643112900000000E-003  0.485001443000000       1.226806193978049E-009
  0.000000000000000E+000  0.490000000000000       2.276539484443811E-009
  8.643112900000000E-003  0.495001443000000       2.272996397482637E-009
  8.642910900000000E-003  0.505000255000000       2.273150140971430E-009
  0.000000000000000E+000  0.510000000000000       2.993080126329970E-009
  8.642910900000000E-003  0.515000255000000       2.988547548917413E-009
  8.643408450000001E-003  0.524999119000000       2.988582643632262E-009
  0.000000000000000E+000  0.530000000000000       3.064073203546140E-009
  8.643408450000001E-003  0.534999119000000       3.059739383883493E-009
  8.644537799999999E-003  0.544998121000000       3.059615523292514E-009
  0.000000000000000E+000  0.550000000000000       6.733816072657098E-009
  8.644537799999999E-003  0.554998121000000       6.725286578877554E-009
  8.646173849999999E-003  0.564997363000000       6.724717900853434E-009
  0.000000000000000E+000  0.570000000000000       6.733816072657060E-009
  8.646173849999999E-003  0.574997363000000       4.698678062095573E-009
  8.648148450000000E-003  0.584996917000000       4.698135374017535E-009
  0.000000000000000E+000  0.590000000000000       4.750581067357390E-009
  8.648148450000000E-003  0.594996917000000       4.746334789506746E-009
  0.000000000000000E+000  0.610000000000000       1.135809569881050E-008
  8.650278549999999E-003  0.614996800500000       1.135010384284463E-008
  8.650278549999999E-003  0.604996800500000       5.936286915139975E-009
  8.652395849999999E-003  0.634996983000000       7.994520149292671E-009
  8.652395849999999E-003  0.624996983000000       1.134865280112268E-008
  0.000000000000000E+000  0.630000000000000       1.135809569881050E-008
  8.654370250000000E-003  0.654997404500000       4.838273588728397E-009
  8.654370250000000E-003  0.644997404500000       7.993641496991490E-009
  0.000000000000000E+000  0.650000000000000       7.998755289729167E-009
  8.656122299999999E-003  0.674998008000000       7.355896312136386E-009
  8.656122299999999E-003  0.664998008000000       3.341209873255855E-009
  0.000000000000000E+000  0.670000000000000       7.357795705884312E-009
  8.657613150000000E-003  0.694998779500000       4.818489306010516E-009
  8.657613150000000E-003  0.684998779500000       7.355663915186591E-009
  0.000000000000000E+000  0.690000000000000       7.357795705884271E-009
  8.658803700000000E-003  0.714999779000000       1.972986153906790E-009
  8.658803700000000E-003  0.704999779000000       4.818638717786223E-009
  0.000000000000000E+000  0.710000000000000       4.819297282070422E-009
  8.659585149999999E-003  0.735001158500000       1.264458228778077E-009
  8.659585149999999E-003  0.725001158500000       1.082383326332909E-009
  0.000000000000000E+000  0.730000000000000       1.264604733425521E-009
  8.659717200000000E-003  0.755003160000000       6.251654736578282E-009
  8.659717200000000E-003  0.745003160000000       1.264745804668704E-009
  0.000000000000000E+000  0.750000000000000       6.252933217896374E-009
  8.658844050000000E-003  0.775006108500000       5.126249142790912E-009
  8.658844050000000E-003  0.765006108500000       6.254080607033952E-009
  0.000000000000000E+000  0.770000000000000       6.252933217896374E-009
  8.656662149999999E-003  0.795010439500000       1.211108308148473E-009
  8.656662149999999E-003  0.785010439500000       5.129525825994096E-009
  0.000000000000000E+000  0.790000000000000       5.128441184034237E-009
  8.653243300000000E-003  0.815016801000000       2.301574228667066E-009
  8.653243300000000E-003  0.805016801000000       2.127104264207184E-009
  0.000000000000000E+000  0.810000000000000       2.304908479064374E-009
  8.649381600000000E-003  0.835026258500000       1.573221460075669E-009
  8.649381600000000E-003  0.825026258500000       2.305773539858517E-009
  0.000000000000000E+000  0.830000000000000       2.304908479064387E-009
  8.646573150000000E-003  0.855040581500000       7.544706211672100E-009
  8.646573150000000E-003  0.845040581500000       2.712329143386268E-009
  0.000000000000000E+000  0.850000000000000       7.569001617730312E-009
  8.645787350000000E-003  0.875062114000000       6.309748363015684E-009
  8.645787350000000E-003  0.865062114000000       7.583166505606378E-009
  0.000000000000000E+000  0.870000000000000       7.569001617730312E-009
  8.644949050000000E-003  0.895091430000000       3.853090868039935E-009
  8.644949050000000E-003  0.885091430000000       6.358110158389766E-009
  0.000000000000000E+000  0.890000000000000       6.337300829394310E-009
  8.643364600000000E-003  0.915124612500000       3.524597580663270E-009
  8.643364600000000E-003  0.905124612500000       3.894587824149873E-009
  0.000000000000000E+000  0.910000000000000       3.875846809556106E-009
  8.661802099999999E-003  0.935167459500000       2.305180566620448E-009
  8.661802099999999E-003  0.925167459500000       3.582326350870850E-009
  0.000000000000000E+000  0.930000000000000       3.551745119457382E-009
  8.751439099999999E-003  0.955321262000000       1.764657034641544E-009
  8.751439099999999E-003  0.945321262000000       2.380378290714819E-009
  0.000000000000000E+000  0.950000000000000       2.324079390205313E-009
  8.217119100000000E-003  0.975133347000000       1.892651425218485E-009
  8.217119100000000E-003  0.965133347000000       1.813236877881046E-009
  0.000000000000000E+000  0.970000000000000       1.981802904588250E-009
  4.367296035000000E-003  0.985620589500000       1.410624713204348E-009
  0.000000000000000E+000  0.990000000000000       5.366890421208798E-009
  4.367296035000000E-003  0.995620589500000       3.319347359837740E-009
  1.436729603500000E-002  0.995620589500000       1.047226706668939E-009
  1.000000000000000E-002   1.00000000000000       5.366890421208793E-009
  2.476306075000000E-002  0.991654538000000       7.792281145749577E-010
  3.000000000000000E-002   1.00000000000000       2.317990077463974E-009
  3.476306075000000E-002  0.991654538000000       2.283805752018474E-009
  4.457327035000000E-002  0.990968880500000       2.346510424452079E-009
  5.000000000000000E-002   1.00000000000000       2.817935141831017E-009
  5.457327034999999E-002  0.990968880500000       2.969019500648543E-009
  6.482212630000000E-002  0.990957906500000       2.887694170023759E-009
  7.000000000000001E-002   1.00000000000000       2.817935141831018E-009
  7.482212630000000E-002  0.990957906500000       1.741378950852851E-009
  8.495979765000000E-002  0.991040412500000       1.545140002473759E-009
  9.000000000000000E-002   1.00000000000000       3.200971240936634E-009
  9.495979765000001E-002  0.991040412500000       3.290589840053448E-009
  0.105017477000000       0.991158993000000       5.536373036725128E-009
  0.110000000000000        1.00000000000000       3.200971240936632E-009
  0.115017477000000       0.991158993000000       5.527001779139644E-009
  0.125025698000000       0.991234863500000       2.447466909975248E-009
  0.130000000000000        1.00000000000000       7.419780973604902E-009
  0.135025698000000       0.991234863500000       7.477847208553868E-009
  0.145021112500000       0.991280799500000       7.465495435315714E-009
  0.150000000000000        1.00000000000000       7.419780973604891E-009
  0.155021112500000       0.991280799500000       6.299107233157626E-009
  0.165014446000000       0.991309184000000       6.294768613366690E-009
  0.170000000000000        1.00000000000000       6.273632233141527E-009
  0.175014446000000       0.991309184000000       2.441116030672760E-009
  0.185008372000000       0.991325798000000       1.894440017727208E-009
  0.190000000000000        1.00000000000000       5.312631988139051E-009
  0.195008372000000       0.991325798000000       5.316830772734619E-009
  0.205003931500000       0.991334419500000       5.316126971633698E-009
  0.210000000000000        1.00000000000000       5.312631988139044E-009
  0.215003931500000       0.991334419500000       4.430597494383394E-009
  0.225001369000000       0.991338317000000       4.430275513576078E-009
  0.230000000000000        1.00000000000000       4.429424165573208E-009
  0.235001369000000       0.991338317000000       4.101214920449705E-009
  0.245000312500000       0.991339928500000       4.100987305814252E-009
  0.250000000000000        1.00000000000000       6.774026459037971E-009
  0.255000312500000       0.991339928500000       6.773813530521150E-009
  0.265000173000000       0.991340706500000       6.773521570305562E-009
  0.270000000000000        1.00000000000000       6.774026459037971E-009
  0.275000173000000       0.991340706500000       5.355208714023569E-009
  0.285000451000000       0.991341341500000       5.355081322807998E-009
  0.290000000000000        1.00000000000000       5.355700551952876E-009
  0.295000451000000       0.991341341500000       1.936565774356149E-009
  0.305000836500000       0.991342084000000       1.996247213958001E-009
  0.310000000000000        1.00000000000000       4.057782020734580E-009
  0.315000836500000       0.991342084000000       4.056790688240995E-009
  0.325001171500000       0.991342975000000       4.056885115732405E-009
  0.330000000000000        1.00000000000000       4.057782020734580E-009
  0.335001171500000       0.991342975000000       2.165214691868378E-009
  0.345001385500000       0.991343972000000       2.692423614391876E-009
  0.350000000000000        1.00000000000000       2.165947250056498E-009
  0.355001385500000       0.991343972000000       2.692050331799177E-009
  0.365001452000000       0.991344999500000       2.452344513295235E-009
  0.370000000000000        1.00000000000000       6.150196416924255E-009
  0.375001452000000       0.991344999500000       6.146951817190335E-009
  0.385001373500000       0.991345975500000       6.147301358790594E-009
  0.390000000000000        1.00000000000000       6.150196416924255E-009
  0.395001373500000       0.991345975500000       2.972749478767891E-009
  0.405001173500000       0.991346824500000       2.972909836384652E-009
  0.410000000000000        1.00000000000000       4.921141098387059E-009
  0.415001173500000       0.991346824500000       4.917835752401162E-009
  0.425000889000000       0.991347492500000       5.781147125355115E-009
  0.430000000000000        1.00000000000000       8.474831634331290E-009
  0.435000889000000       0.991347492500000       8.468769827377335E-009
  0.445000560500000       0.991347949000000       8.469049480062574E-009
  0.450000000000000        1.00000000000000       8.474831634331290E-009
  0.455000560500000       0.991347949000000       5.356212877249660E-009
  0.465000217500000       0.991348183000000       7.989834348673798E-009
  0.470000000000000        1.00000000000000       7.644407838004628E-009
  0.475000217500000       0.991348183000000       7.989660317474879E-009
  0.484999875500000       0.991348196000000       1.900994121324530E-008
  0.490000000000000        1.00000000000000       1.921977915695454E-008
  0.494999875500000       0.991348196000000       1.920583567214118E-008
  0.504999542000000       0.991347991500000       3.134597403371657E-008
  0.510000000000000        1.00000000000000       4.334996247173176E-008
  0.514999542000000       0.991347991500000       4.332000407873877E-008
  0.524999224000000       0.991347576500000       4.331888523740115E-008
  0.530000000000000        1.00000000000000       5.649742514307499E-008
  0.534999224000000       0.991347576500000       5.646130977503095E-008
  0.544998939500000       0.991346963000000       5.645911974172994E-008
  0.550000000000000        1.00000000000000       6.112766933060172E-008
  0.554998939500000       0.991346963000000       6.109271125476644E-008
  0.564998717000000       0.991346176000000       1.098953041995914E-007
  0.570000000000000        1.00000000000000       1.204642306558299E-007
  0.574998717000000       0.991346176000000       1.204048882906413E-007
  0.590000000000000        1.00000000000000       2.491742945040706E-007
  0.594998586500000       0.991345259500000       2.490729473165384E-007
  0.584998586500000       0.991345259500000       2.113052508028044E-007
  0.614998569500000       0.991344273500000       3.815716172169107E-007
  0.604998569500000       0.991344273500000       2.913241840851878E-007
  0.610000000000000        1.00000000000000       3.816939539146436E-007
  0.634998669000000       0.991343286000000       4.465608584240253E-007
  0.624998669000000       0.991343286000000       3.815515346008045E-007
  0.630000000000000        1.00000000000000       4.466680514083465E-007
  0.654998873000000       0.991342357000000       4.890877999209592E-007
  0.644998873000000       0.991342357000000       4.465418802051276E-007
  0.650000000000000        1.00000000000000       4.891708349478433E-007
  0.674999171500000       0.991341530000000       9.965010601657236E-007
  0.664999171500000       0.991341530000000       9.623521971124451E-007
  0.670000000000000        1.00000000000000       9.966137415561397E-007
  0.694999584500000       0.991340837000000       2.047275932333227E-006
  0.684999584500000       0.991340837000000       1.870875946387760E-006
  0.690000000000000        1.00000000000000       2.047426843150356E-006
  0.715000199000000       0.991340327000000       3.612866896948998E-006
  0.705000199000000       0.991340327000000       2.963676085504647E-006
  0.710000000000000        1.00000000000000       3.613084654972549E-006
  0.735001200500000       0.991340113500000       5.235253373992179E-006
  0.725001200500000       0.991340113500000       3.841345776780597E-006
  0.730000000000000        1.00000000000000       5.235734281672464E-006
  0.755002895000000       0.991340404500000       5.853442253428680E-006
  0.745002895000000       0.991340404500000       5.236193765379877E-006
  0.750000000000000        1.00000000000000       5.854623466626199E-006
  0.775005722500000       0.991341466000000       7.380164697322909E-006
  0.765005722500000       0.991341466000000       6.927777618850656E-006
  0.770000000000000        1.00000000000000       7.383376471492690E-006
  0.795010279500000       0.991343459500000       1.726758508398877E-005
  0.785010279500000       0.991343459500000       1.728535584548999E-005
  0.790000000000000        1.00000000000000       1.623901786741404E-005
  0.815017367500000       0.991346171500000       3.380360313686160E-005
  0.805017367500000       0.991346171500000       3.380124395242413E-005
  0.810000000000000        1.00000000000000       3.385181293910168E-005
  0.835028107500000       0.991348760500000       6.342180131386620E-005
  0.825028107500000       0.991348760500000       5.690346092970344E-005
  0.830000000000000        1.00000000000000       6.356062315086329E-005
  0.855044141500000       0.991349863000000       1.072649403808343E-004
  0.845044141500000       0.991349863000000       8.593568755741061E-005
  0.850000000000000        1.00000000000000       1.075960908300652E-004
  0.875067482500000       0.991348842500000       1.533775933416893E-004
  0.865067482500000       0.991348842500000       1.142341906666365E-004
  0.870000000000000        1.00000000000000       1.540163492381641E-004
  0.895098253500000       0.991348226500000       1.401814352111785E-004
  0.885098253500000       0.991348226500000       1.546659858229798E-004
  0.890000000000000        1.00000000000000       1.540163492381641E-004
  0.915132124000000       0.991349123500000       1.917227047042582E-004
  0.905132124000000       0.991349123500000       1.942765042174083E-004
  0.910000000000000        1.00000000000000       1.754205490304201E-004
  0.935174657500000       0.991331000000000       5.551961272809397E-004
  0.925174657500000       0.991331000000000       5.649612863205540E-004
  0.930000000000000        1.00000000000000       5.537798656206730E-004
  0.955327098000000       0.991242725000000       1.156045504357875E-003
  0.945327098000000       0.991242725000000       1.193808509210585E-003
  0.950000000000000        1.00000000000000       1.115295782744385E-003
  0.975136956000000       0.991779272000000       1.503345723985750E-003
  0.965136956000000       0.991779272000000       1.525747402424755E-003
  0.970000000000000        1.00000000000000       1.564872945135395E-003
  0.985621033000000       0.995632260500000       1.301455464795832E-003
  0.990000000000000        1.00000000000000       1.927161066591444E-003
  0.995621033000000       0.995632260500000       1.191922250162002E-003
  0.995621033000000       0.985632260500000       1.304335873106394E-003
   1.00000000000000       0.990000000000000       1.927161066591444E-003
  0.991658165500000       0.975233312000000       1.611546051120940E-003
   1.00000000000000       0.970000000000000       1.623611311978006E-003
  0.991658165500000       0.965233312000000       1.651776551421377E-003
  0.990974828000000       0.955420782000000       1.034286341219670E-003
   1.00000000000000       0.950000000000000       1.376654031542822E-003
  0.990974828000000       0.945420782000000       1.449340207962916E-003
  0.990965339500000       0.935170440500000       2.039568273431998E-003
   1.00000000000000       0.930000000000000       9.606336224452125E-003
  0.990965339500000       0.925170440500000       9.999755147279150E-003
  0.991048191000000       0.915032419500000       1.263261329830354E-002
   1.00000000000000       0.910000000000000       4.176212681537655E-002
  0.991048191000000       0.905032419500000       4.288710783265072E-002
  0.991166046000000       0.894975438000000       5.403176936381535E-002
   1.00000000000000       0.890000000000000       0.169570432286446     
  0.991166046000000       0.884975438000000       0.171922783005921     
  0.991240573000000       0.874968397000000       0.216216801135198     
   1.00000000000000       0.870000000000000       0.645349292636022     
  0.991240573000000       0.864968397000000       0.649891186535468     
  0.991285679000000       0.854972993500000       0.811019574235837     
   1.00000000000000       0.850000000000000        2.28114657292171     
  0.991285679000000       0.844972993500000        2.28877627998792     
  0.991316712000000       0.834973562000000        2.82948459926088     
   1.00000000000000       0.830000000000000        7.43877487168669     
  0.991316712000000       0.824973562000000        7.44382443776817     
  0.991347600500000       0.814952959500000        9.13606184517909     
   1.00000000000000       0.810000000000000        22.3605109079119     
  0.991347600500000       0.804952959500000        22.2928602532510     
  0.991404193500000       0.794870150500000        27.4641686594948     
   1.00000000000000       0.790000000000000        62.2956119032398     
  0.991404193500000       0.784870150500000        61.5454967920856     
  0.991554745500000       0.774608185000000        78.8971540751491     
   1.00000000000000       0.770000000000000        163.449597067394     
  0.991554745500000       0.764608185000000        157.249804406989     
  0.992057017000000       0.753719547500000        202.234195098099     
   1.00000000000000       0.750000000000000        366.297269348631     
  0.992057017000000       0.743719547500000        321.270087681776     
  0.995662056500000       0.737485215500000        253.928291426803     
   1.00000000000000       0.735000000000000        418.276589317818     
  0.995662056500000       0.732485215500000        418.226810526704     
  0.986400349000000       0.733442701500000        261.076877632162     
  0.991144210500000       0.730223192000000        415.836906511777     
  0.986220446500000       0.728695462500000        501.841548339945     
  0.995482154000000       0.722737976500000        687.474430014516     
  0.995482154000000       0.727737976500000        442.258313069611     
   1.00000000000000       0.725000000000000        650.678554881280     
  0.995411727500000       0.717642613000000        728.158937253475     
   1.00000000000000       0.715000000000000        1007.51702632889     
  0.995411727500000       0.712642613000000        1066.93432944812     
  0.986278989500000       0.712850652000000        727.745604015678     
  0.990422711500000       0.710234316500000        1057.50236261918     
  0.985878246000000       0.707799742500000        1022.81295828976     
  0.993207251000000       0.704037449000000        1011.21510339863     
  0.995010984000000       0.707591703500000        1156.24208790202     
  0.998196267000000       0.706445745500000        1190.62557345915     
  0.998196267000000       0.701445745500000        814.702325304771     
  0.998196267000000       0.703945745500000        651.929156559152     
   1.00000000000000       0.702500000000000        881.090790045867     
   1.00000000000000       0.707500000000000        780.104891585247     
  0.998017140500000       0.698755675000000        852.029171519659     
   1.00000000000000       0.697500000000000        1016.50318174278     
  0.998017140500000       0.696255675000000        954.296868631214     
  0.993905338000000       0.696259918500000        898.818335752458     
  0.995927113000000       0.695006952500000        1041.90288943871     
  0.993798170000000       0.693755521000000        988.641684889793     
  0.997909972500000       0.691251277500000        1109.99462470087     
  0.997909972500000       0.693751277500000        1011.95996941176     
   1.00000000000000       0.692500000000000        1139.17486656447     
  0.989612921000000       0.693758040000000        907.611281712501     
  0.991651862000000       0.692505291000000        1040.30779948548     
  0.989488388000000       0.691254844000000        993.301142506105     
  0.985279440000000       0.691257719500000        899.316457681383     
  0.987325590000000       0.690004699500000        1029.22577688201     
  0.985155583000000       0.688754826000000        985.433526919814     
  0.989304078500000       0.686251115000000        1137.25530698598     
  0.989364531000000       0.688751950500000        1036.91194234199     
  0.991466876500000       0.687501259500000        1162.97689006863     
  0.993545782500000       0.683750072500000        1287.15206133584     
  0.993565039500000       0.686250490500000        1159.89178233196     
  0.995704398000000       0.685000139000000        1298.86167759351     
  0.997842570500000       0.681249860500000        1421.74419171499     
  0.997842570500000       0.683749860500000        1295.20971712561     
   1.00000000000000       0.682500000000000        1425.55227317211     
   1.00000000000000       0.687500000000000        1269.66065072805     
  0.997861827500000       0.686250278500000        1257.92328180701     
  0.997861827500000       0.688750278500000        1151.59470183683     
  0.995771800000000       0.690001556000000        1163.15186103619     
  0.993673637000000       0.691252325000000        1032.42663351027     
  0.993625492000000       0.688751326000000        1135.82115029093     
  0.997832474000000       0.678747669000000        1465.70334459147     
   1.00000000000000       0.677500000000000        1620.87194879900     
  0.997832474000000       0.676247669000000        1621.50032258873     
  0.993489775000000       0.676243228500000        1473.16048922520     
  0.995637414500000       0.674978925500000        1689.01386979489     
  0.993462241500000       0.673726816000000        1672.62957331466     
  0.997804940500000       0.671231256500000        1893.64802693614     
  0.997804940500000       0.673731256500000        1701.62240614126     
   1.00000000000000       0.672500000000000        1881.00816962265     
  0.989138614000000       0.673742892000000        1472.43984558599     
  0.991242453000000       0.672475798500000        1694.95389149685     
  0.989066465000000       0.671227571500000        1654.26300908303     
  0.984792676000000       0.671246872000000        1456.31332329156     
  0.986863882500000       0.669995446000000        1661.41830125724     
  0.984693932500000       0.668747653000000        1607.44138783460     
  0.988736515500000       0.666236000000000        1786.43028214342     
  0.988967721500000       0.668728352500000        1699.96015259488     
  0.990939098000000       0.667468125500000        1911.10298323361     
  0.992323634000000       0.664385961000000        1532.56377725599     
  0.993062326500000       0.666115950500000        2033.18136577378     
  0.994678068500000       0.665526138500000        1676.07789401999     
  0.994911261000000       0.663071083500000        1275.45586305907     
  0.995242152500000       0.664101689500000        1238.95580417093     
  0.996214037500000       0.663376624000000        1138.57607556822     
  0.995980845000000       0.665831679000000        1418.52839106037     
  0.996879647000000       0.661750946500000        1429.01221646608     
  0.996938506000000       0.662756635000000        1248.34519342049     
  0.997935007000000       0.662161563500000        1240.33245829702     
  0.998938074000000       0.660577937500000        1701.65240827560     
  0.998938074000000       0.661827937500000        1547.29085252404     
   1.00000000000000       0.661250000000000        1759.34881441414     
   1.00000000000000       0.663750000000000        1518.62676563836     
  0.998996933000000       0.662833626000000        1284.26613702318     
  0.998996933000000       0.664083626000000        1497.70659070502     
   1.00000000000000       0.667500000000000        2265.46008765742     
  0.997708380500000       0.666128064000000        2314.59489606264     
  0.997708380500000       0.668628064000000        2075.86689194766     
  0.998272464500000       0.664703615000000        1622.87519108707     
  0.997269397500000       0.663787241000000        1051.14820235884     
  0.995513321000000       0.669859320500000        2024.63186609210     
  0.993390092500000       0.671211495500000        1716.29581402813     
  0.993293532500000       0.668608303000000        1956.43369339961     
  0.998920823000000       0.659369237000000        1831.15531921445     
   1.00000000000000       0.658750000000000        2169.83361487675     
  0.998920823000000       0.658119237000000        2159.79615444806     
  0.996759184500000       0.658117587000000        1828.06967242674     
  0.997838760000000       0.657493695000000        2272.11086105810     
  0.996756298500000       0.656872808000000        2275.95052472118     
  0.998917937000000       0.655624458000000        2789.24510763637     
  0.998917937000000       0.656874458000000        2281.38871610274     